Program Version,EnergyPlus, Version 8.7.0-78a111df4a, YMD=2019.11.22 13:19
1,5,Environment Title[],Latitude[deg],Longitude[deg],Time Zone[],Elevation[m]
2,6,Day of Simulation[],Month[],Day of Month[],DST Indicator[1=yes 0=no],Hour[],StartMinute[],EndMinute[],DayType
3,3,Cumulative Day of Simulation[],Month[],Day of Month[],DST Indicator[1=yes 0=no],DayType  ! When Daily Report Variables Requested
4,2,Cumulative Days of Simulation[],Month[]  ! When Monthly Report Variables Requested
5,1,Cumulative Days of Simulation[] ! When Run Period Report Variables Requested
2232,1,AF305DAYLIGHINGCONTROL,Daylighting Reference Point 1 Illuminance [lux] !Hourly
2233,1,AF305DAYLIGHINGCONTROL,Daylighting Reference Point 2 Illuminance [lux] !Hourly
5265,1,Whole Building,Facility Total Electric Demand Power [W] !Hourly
End of Data Dictionary
1,RUNPERIOD,  10.30, 123.97,   8.00,  24.00
2,1,10, 1, 0, 1, 0.00,60.00,Monday
2232,0.0
2233,0.0
5265,7963.017272001282
2,1,10, 1, 0, 2, 0.00,60.00,Monday
2232,0.0
2233,0.0
5265,7877.944968411619
2,1,10, 1, 0, 3, 0.00,60.00,Monday
2232,0.0
2233,0.0
5265,7740.801417253136
2,1,10, 1, 0, 4, 0.00,60.00,Monday
2232,0.0
2233,0.0
5265,7672.267153196008
2,1,10, 1, 0, 5, 0.00,60.00,Monday
2232,0.0
2233,0.0
5265,7608.173297778648
2,1,10, 1, 0, 6, 0.00,60.00,Monday
2232,35.62463789237912
2233,12.718906364275077
5265,7667.6595646182
2,1,10, 1, 0, 7, 0.00,60.00,Monday
2232,242.70716946104006
2233,76.43258910628463
5265,7805.949225552012
2,1,10, 1, 0, 8, 0.00,60.00,Monday
2232,195.24537696983888
2233,116.7482933762408
5265,29706.342257138924
2,1,10, 1, 0, 9, 0.00,60.00,Monday
2232,219.08018582683148
2233,134.6936190650454
5265,61874.24681707583
2,1,10, 1, 0,10, 0.00,60.00,Monday
2232,203.0007333789064
2233,128.39864770049648
5265,96309.80478936382
2,1,10, 1, 0,11, 0.00,60.00,Monday
2232,165.20344367636162
2233,107.88770811262798
5265,98030.95370563143
2,1,10, 1, 0,12, 0.00,60.00,Monday
2232,129.50188613744693
2233,86.47643804092933
5265,141694.39927415169
2,1,10, 1, 0,13, 0.00,60.00,Monday
2232,127.77604484592378
2233,84.19409023895229
5265,145111.92594510859
2,1,10, 1, 0,14, 0.00,60.00,Monday
2232,123.23134698322461
2233,79.11812161729292
5265,170382.44821892796
2,1,10, 1, 0,15, 0.00,60.00,Monday
2232,96.92567797300717
2233,60.960758500617668
5265,177616.67556937345
2,1,10, 1, 0,16, 0.00,60.00,Monday
2232,63.51438221267599
2233,39.75252602131803
5265,158774.61786176565
2,1,10, 1, 0,17, 0.00,60.00,Monday
2232,25.86036475881308
2233,16.40925285856156
5265,137267.5701978904
2,1,10, 1, 0,18, 0.00,60.00,Monday
2232,2.934566510600139
2233,1.8600178031169444
5265,52789.03110526993
2,1,10, 1, 0,19, 0.00,60.00,Monday
2232,0.0
2233,0.0
5265,26000.55588710556
2,1,10, 1, 0,20, 0.00,60.00,Monday
2232,0.0
2233,0.0
5265,10994.510620013816
2,1,10, 1, 0,21, 0.00,60.00,Monday
2232,0.0
2233,0.0
5265,8577.829551667242
2,1,10, 1, 0,22, 0.00,60.00,Monday
2232,0.0
2233,0.0
5265,8150.59601330973
2,1,10, 1, 0,23, 0.00,60.00,Monday
2232,0.0
2233,0.0
5265,8136.9201480324655
2,1,10, 1, 0,24, 0.00,60.00,Monday
2232,0.0
2233,0.0
5265,8119.429471205141
2,2,10, 2, 0, 1, 0.00,60.00,Tuesday
2232,0.0
2233,0.0
5265,7871.989536985077
2,2,10, 2, 0, 2, 0.00,60.00,Tuesday
2232,0.0
2233,0.0
5265,7779.889530858968
2,2,10, 2, 0, 3, 0.00,60.00,Tuesday
2232,0.0
2233,0.0
5265,7669.911163300875
2,2,10, 2, 0, 4, 0.00,60.00,Tuesday
2232,0.0
2233,0.0
5265,7553.677197479301
2,2,10, 2, 0, 5, 0.00,60.00,Tuesday
2232,0.0
2233,0.0
5265,7426.659325282028
2,2,10, 2, 0, 6, 0.00,60.00,Tuesday
2232,35.81612625054145
2233,12.967506414862016
5265,7538.586049274793
2,2,10, 2, 0, 7, 0.00,60.00,Tuesday
2232,246.48668600224918
2233,78.48638135566344
5265,7974.399664843698
2,2,10, 2, 0, 8, 0.00,60.00,Tuesday
2232,206.3998092989411
2233,121.71336024313534
5265,21087.60269106644
2,2,10, 2, 0, 9, 0.00,60.00,Tuesday
2232,226.30228932878439
2233,138.64580819909123
5265,82563.76969170138
2,2,10, 2, 0,10, 0.00,60.00,Tuesday
2232,207.05540042885739
2233,130.7812078694735
5265,115319.09781222265
2,2,10, 2, 0,11, 0.00,60.00,Tuesday
2232,160.66581978214996
2233,104.9708297232069
5265,121025.86507963711
2,2,10, 2, 0,12, 0.00,60.00,Tuesday
2232,133.45078532424689
2233,88.95213836030041
5265,151861.17695253765
2,2,10, 2, 0,13, 0.00,60.00,Tuesday
2232,128.61851280044986
2233,84.54381833081587
5265,136669.34117165485
2,2,10, 2, 0,14, 0.00,60.00,Tuesday
2232,109.1565516566498
2233,70.14130784135442
5265,154253.42383410608
2,2,10, 2, 0,15, 0.00,60.00,Tuesday
2232,90.77066187896178
2233,57.198313427548068
5265,130426.18854546525
2,2,10, 2, 0,16, 0.00,60.00,Tuesday
2232,63.71479334590956
2233,39.861838027044637
5265,135213.77790070963
2,2,10, 2, 0,17, 0.00,60.00,Tuesday
2232,32.3272378690911
2233,20.40209769681975
5265,111029.81926572095
2,2,10, 2, 0,18, 0.00,60.00,Tuesday
2232,3.64798386654793
2233,2.2881215244565857
5265,109442.80950072548
2,2,10, 2, 0,19, 0.00,60.00,Tuesday
2232,0.0
2233,0.0
5265,64257.629846997384
2,2,10, 2, 0,20, 0.00,60.00,Tuesday
2232,0.0
2233,0.0
5265,31289.917712876064
2,2,10, 2, 0,21, 0.00,60.00,Tuesday
2232,0.0
2233,0.0
5265,8631.990493445248
2,2,10, 2, 0,22, 0.00,60.00,Tuesday
2232,0.0
2233,0.0
5265,8386.292650869234
2,2,10, 2, 0,23, 0.00,60.00,Tuesday
2232,0.0
2233,0.0
5265,8335.223156199596
2,2,10, 2, 0,24, 0.00,60.00,Tuesday
2232,0.0
2233,0.0
5265,8295.605639180341
2,3,10, 3, 0, 1, 0.00,60.00,Wednesday
2232,0.0
2233,0.0
5265,8219.10815841262
2,3,10, 3, 0, 2, 0.00,60.00,Wednesday
2232,0.0
2233,0.0
5265,8122.282520187309
2,3,10, 3, 0, 3, 0.00,60.00,Wednesday
2232,0.0
2233,0.0
5265,7992.530025255056
2,3,10, 3, 0, 4, 0.00,60.00,Wednesday
2232,0.0
2233,0.0
5265,7930.962564568536
2,3,10, 3, 0, 5, 0.00,60.00,Wednesday
2232,0.0
2233,0.0
5265,7859.024199148723
2,3,10, 3, 0, 6, 0.00,60.00,Wednesday
2232,13.824295631148763
2233,5.860386324920502
5265,7900.038331615531
2,3,10, 3, 0, 7, 0.00,60.00,Wednesday
2232,85.70669763770987
2233,36.93367778601593
5265,8081.749050242851
2,3,10, 3, 0, 8, 0.00,60.00,Wednesday
2232,118.19709071134037
2233,73.84931327959957
5265,25186.879516356843
2,3,10, 3, 0, 9, 0.00,60.00,Wednesday
2232,166.12618573085175
2233,104.45829826308993
5265,75803.70104676538
2,3,10, 3, 0,10, 0.00,60.00,Wednesday
2232,169.62402123633226
2233,108.72623166453544
5265,112799.53827575244
2,3,10, 3, 0,11, 0.00,60.00,Wednesday
2232,151.9844979520147
2233,99.76605493619523
5265,133466.99861746157
2,3,10, 3, 0,12, 0.00,60.00,Wednesday
2232,133.40758015256049
2233,88.42689676648836
5265,164885.22982251386
2,3,10, 3, 0,13, 0.00,60.00,Wednesday
2232,116.52605216934278
2233,76.50521552813781
5265,155895.84815739288
2,3,10, 3, 0,14, 0.00,60.00,Wednesday
2232,101.58890572534456
2233,65.44498882241105
5265,152953.2584435114
2,3,10, 3, 0,15, 0.00,60.00,Wednesday
2232,93.81153504119664
2233,59.063471514763588
5265,158430.76462878925
2,3,10, 3, 0,16, 0.00,60.00,Wednesday
2232,75.16013022489814
2233,46.877191538858578
5265,123689.40236287425
2,3,10, 3, 0,17, 0.00,60.00,Wednesday
2232,39.49920304767978
2233,24.407217651314924
5265,68641.87615896687
2,3,10, 3, 0,18, 0.00,60.00,Wednesday
2232,4.737880887466052
2233,2.886308388748597
5265,52189.27514080168
2,3,10, 3, 0,19, 0.00,60.00,Wednesday
2232,0.0
2233,0.0
5265,22665.831820035444
2,3,10, 3, 0,20, 0.00,60.00,Wednesday
2232,0.0
2233,0.0
5265,9043.168982406913
2,3,10, 3, 0,21, 0.00,60.00,Wednesday
2232,0.0
2233,0.0
5265,8520.475370207962
2,3,10, 3, 0,22, 0.00,60.00,Wednesday
2232,0.0
2233,0.0
5265,8100.672502758949
2,3,10, 3, 0,23, 0.00,60.00,Wednesday
2232,0.0
2233,0.0
5265,8126.978242122001
2,3,10, 3, 0,24, 0.00,60.00,Wednesday
2232,0.0
2233,0.0
5265,8124.365848511068
2,4,10, 4, 0, 1, 0.00,60.00,Thursday
2232,0.0
2233,0.0
5265,8060.245677732455
2,4,10, 4, 0, 2, 0.00,60.00,Thursday
2232,0.0
2233,0.0
5265,7985.0548774862555
2,4,10, 4, 0, 3, 0.00,60.00,Thursday
2232,0.0
2233,0.0
5265,7924.356628214905
2,4,10, 4, 0, 4, 0.00,60.00,Thursday
2232,0.0
2233,0.0
5265,7909.207559840378
2,4,10, 4, 0, 5, 0.00,60.00,Thursday
2232,0.0
2233,0.0
5265,7907.254894739054
2,4,10, 4, 0, 6, 0.00,60.00,Thursday
2232,18.831443085723039
2233,7.304707907904917
5265,7929.302935569056
2,4,10, 4, 0, 7, 0.00,60.00,Thursday
2232,119.071086293732
2233,46.933124213034179
5265,8000.980985159746
2,4,10, 4, 0, 8, 0.00,60.00,Thursday
2232,141.87263061010996
2233,88.48906712086195
5265,22700.72155362889
2,4,10, 4, 0, 9, 0.00,60.00,Thursday
2232,171.97384654010683
2233,108.11161720496763
5265,96413.77052733943
2,4,10, 4, 0,10, 0.00,60.00,Thursday
2232,169.4537328359797
2233,108.65001515323384
5265,132216.6008294253
2,4,10, 4, 0,11, 0.00,60.00,Thursday
2232,151.30192611048617
2233,99.3258817817984
5265,157496.03587683265
2,4,10, 4, 0,12, 0.00,60.00,Thursday
2232,137.80203881554224
2233,91.48242958762062
5265,161824.1910705235
2,4,10, 4, 0,13, 0.00,60.00,Thursday
2232,130.36535869630624
2233,85.69280509252049
5265,164422.44411525236
2,4,10, 4, 0,14, 0.00,60.00,Thursday
2232,122.50839754014247
2233,78.61814834428748
5265,176311.94640655805
2,4,10, 4, 0,15, 0.00,60.00,Thursday
2232,110.97387154160724
2233,69.65255898642492
5265,165973.6492244501
2,4,10, 4, 0,16, 0.00,60.00,Thursday
2232,82.67886398631721
2233,51.085003737946177
5265,172266.27029975723
2,4,10, 4, 0,17, 0.00,60.00,Thursday
2232,42.304809873571297
2233,25.884164711600979
5265,160454.3946169028
2,4,10, 4, 0,18, 0.00,60.00,Thursday
2232,5.58803935737934
2233,3.3819635157426028
5265,87298.28440074984
2,4,10, 4, 0,19, 0.00,60.00,Thursday
2232,0.0
2233,0.0
5265,62352.45226679617
2,4,10, 4, 0,20, 0.00,60.00,Thursday
2232,0.0
2233,0.0
5265,44481.81365281241
2,4,10, 4, 0,21, 0.00,60.00,Thursday
2232,0.0
2233,0.0
5265,8250.419480336404
2,4,10, 4, 0,22, 0.00,60.00,Thursday
2232,0.0
2233,0.0
5265,8238.360843048538
2,4,10, 4, 0,23, 0.00,60.00,Thursday
2232,0.0
2233,0.0
5265,8235.496406499775
2,4,10, 4, 0,24, 0.00,60.00,Thursday
2232,0.0
2233,0.0
5265,8191.882756048563
2,5,10, 5, 0, 1, 0.00,60.00,Friday
2232,0.0
2233,0.0
5265,8095.206772814917
2,5,10, 5, 0, 2, 0.00,60.00,Friday
2232,0.0
2233,0.0
5265,7996.323249992221
2,5,10, 5, 0, 3, 0.00,60.00,Friday
2232,0.0
2233,0.0
5265,7931.840545747746
2,5,10, 5, 0, 4, 0.00,60.00,Friday
2232,0.0
2233,0.0
5265,7915.329472777436
2,5,10, 5, 0, 5, 0.00,60.00,Friday
2232,0.0
2233,0.0
5265,7907.040288792581
2,5,10, 5, 0, 6, 0.00,60.00,Friday
2232,26.897012514008226
2233,10.189511563034959
5265,7922.972001138162
2,5,10, 5, 0, 7, 0.00,60.00,Friday
2232,175.3301454835312
2233,62.92403867707112
5265,7981.209672108217
2,5,10, 5, 0, 8, 0.00,60.00,Friday
2232,155.2423710319923
2233,96.4339883149262
5265,28014.380316179497
2,5,10, 5, 0, 9, 0.00,60.00,Friday
2232,178.61564619074094
2233,111.9580855048265
5265,70319.01216192164
2,5,10, 5, 0,10, 0.00,60.00,Friday
2232,167.15558682011076
2233,107.15704111594262
5265,137594.93103974139
2,5,10, 5, 0,11, 0.00,60.00,Friday
2232,148.68874791058409
2233,97.60335821216462
5265,136158.9478709906
2,5,10, 5, 0,12, 0.00,60.00,Friday
2232,131.15532965441097
2233,87.48817083082274
5265,142519.65220258226
2,5,10, 5, 0,13, 0.00,60.00,Friday
2232,130.99887363523059
2233,86.03242068362909
5265,156296.46167873266
2,5,10, 5, 0,14, 0.00,60.00,Friday
2232,140.80339865156697
2233,89.53018970776533
5265,166606.7512950498
2,5,10, 5, 0,15, 0.00,60.00,Friday
2232,129.25280244624
2233,79.83960833397704
5265,145363.70663904245
2,5,10, 5, 0,16, 0.00,60.00,Friday
2232,86.9562660911663
2233,53.04411899941306
5265,126677.22159536423
2,5,10, 5, 0,17, 0.00,60.00,Friday
2232,41.82567365931573
2233,25.552451238798459
5265,117316.33943341281
2,5,10, 5, 0,18, 0.00,60.00,Friday
2232,4.599971291363808
2233,2.791910340718237
5265,55630.456451637205
2,5,10, 5, 0,19, 0.00,60.00,Friday
2232,0.0
2233,0.0
5265,29414.28550229617
2,5,10, 5, 0,20, 0.00,60.00,Friday
2232,0.0
2233,0.0
5265,18544.724003834835
2,5,10, 5, 0,21, 0.00,60.00,Friday
2232,0.0
2233,0.0
5265,13414.022135361987
2,5,10, 5, 0,22, 0.00,60.00,Friday
2232,0.0
2233,0.0
5265,8304.737795426134
2,5,10, 5, 0,23, 0.00,60.00,Friday
2232,0.0
2233,0.0
5265,8277.06456427606
2,5,10, 5, 0,24, 0.00,60.00,Friday
2232,0.0
2233,0.0
5265,8254.17180377928
2,6,10, 6, 0, 1, 0.00,60.00,Saturday
2232,0.0
2233,0.0
5265,8229.446580469854
2,6,10, 6, 0, 2, 0.00,60.00,Saturday
2232,0.0
2233,0.0
5265,8214.045773782507
2,6,10, 6, 0, 3, 0.00,60.00,Saturday
2232,0.0
2233,0.0
5265,8188.439434952014
2,6,10, 6, 0, 4, 0.00,60.00,Saturday
2232,0.0
2233,0.0
5265,8167.347067399972
2,6,10, 6, 0, 5, 0.00,60.00,Saturday
2232,0.0
2233,0.0
5265,8150.21143241839
2,6,10, 6, 0, 6, 0.00,60.00,Saturday
2232,11.84756237504695
2233,5.28712604377798
5265,8125.042761609343
2,6,10, 6, 0, 7, 0.00,60.00,Saturday
2232,72.79248229932539
2233,32.94084284489901
5265,8090.025037488941
2,6,10, 6, 0, 8, 0.00,60.00,Saturday
2232,105.33652229766547
2233,65.69722840855646
5265,8086.386202760589
2,6,10, 6, 0, 9, 0.00,60.00,Saturday
2232,159.92638751178206
2233,100.56442561691658
5265,42058.63928884817
2,6,10, 6, 0,10, 0.00,60.00,Saturday
2232,169.23560010333453
2233,108.5018667715912
5265,62932.418488514806
2,6,10, 6, 0,11, 0.00,60.00,Saturday
2232,152.18842137544696
2233,99.94763445998103
5265,77404.97701548827
2,6,10, 6, 0,12, 0.00,60.00,Saturday
2232,140.3562192923197
2233,93.37083389872095
5265,71536.0372369414
2,6,10, 6, 0,13, 0.00,60.00,Saturday
2232,132.45083601775304
2233,87.13878195453866
5265,60062.070373200004
2,6,10, 6, 0,14, 0.00,60.00,Saturday
2232,123.07890507038394
2233,78.97944534775958
5265,52687.48998156621
2,6,10, 6, 0,15, 0.00,60.00,Saturday
2232,107.33438033561602
2233,67.38763351201773
5265,52984.187891632704
2,6,10, 6, 0,16, 0.00,60.00,Saturday
2232,78.42546777647969
2233,48.755963499287108
5265,47828.87974616556
2,6,10, 6, 0,17, 0.00,60.00,Saturday
2232,39.31160301990503
2233,24.18083827043263
5265,39151.455718142315
2,6,10, 6, 0,18, 0.00,60.00,Saturday
2232,4.0214097747095078
2233,2.4489055281246467
5265,35235.72845978663
2,6,10, 6, 0,19, 0.00,60.00,Saturday
2232,0.0
2233,0.0
5265,28441.657712200835
2,6,10, 6, 0,20, 0.00,60.00,Saturday
2232,0.0
2233,0.0
5265,11605.641480478407
2,6,10, 6, 0,21, 0.00,60.00,Saturday
2232,0.0
2233,0.0
5265,11478.671047145292
2,6,10, 6, 0,22, 0.00,60.00,Saturday
2232,0.0
2233,0.0
5265,8658.961778557297
2,6,10, 6, 0,23, 0.00,60.00,Saturday
2232,0.0
2233,0.0
5265,8334.406959672671
2,6,10, 6, 0,24, 0.00,60.00,Saturday
2232,0.0
2233,0.0
5265,8165.173672587091
2,7,10, 7, 0, 1, 0.00,60.00,Sunday
2232,0.0
2233,0.0
5265,8112.772636016136
2,7,10, 7, 0, 2, 0.00,60.00,Sunday
2232,0.0
2233,0.0
5265,8091.682416000374
2,7,10, 7, 0, 3, 0.00,60.00,Sunday
2232,0.0
2233,0.0
5265,8063.982757300689
2,7,10, 7, 0, 4, 0.00,60.00,Sunday
2232,0.0
2233,0.0
5265,8020.335031423824
2,7,10, 7, 0, 5, 0.00,60.00,Sunday
2232,0.0
2233,0.0
5265,7973.107022768568
2,7,10, 7, 0, 6, 0.00,60.00,Sunday
2232,12.552310219325018
2233,5.440252356994186
5265,7953.679509726105
2,7,10, 7, 0, 7, 0.00,60.00,Sunday
2232,79.15103848479545
2233,35.05963055720494
5265,7998.8555598905805
2,7,10, 7, 0, 8, 0.00,60.00,Sunday
2232,115.37450312661024
2233,72.09023609492893
5265,8087.067408108924
2,7,10, 7, 0, 9, 0.00,60.00,Sunday
2232,152.0343964756995
2233,95.60038474490163
5265,8195.043180531668
2,7,10, 7, 0,10, 0.00,60.00,Sunday
2232,155.3363775353005
2233,99.57642632544035
5265,8298.517559930124
2,7,10, 7, 0,11, 0.00,60.00,Sunday
2232,141.70925880635938
2233,92.89248589742518
5265,8361.44565579733
2,7,10, 7, 0,12, 0.00,60.00,Sunday
2232,128.0460548652039
2233,84.78680537055758
5265,8363.0916942529
2,7,10, 7, 0,13, 0.00,60.00,Sunday
2232,121.3334294719158
2233,79.6454779498735
5265,8304.506965285342
2,7,10, 7, 0,14, 0.00,60.00,Sunday
2232,112.7562591780528
2233,72.3730105697183
5265,8242.368082581888
2,7,10, 7, 0,15, 0.00,60.00,Sunday
2232,102.23677271132557
2233,64.25758124198753
5265,8227.590721096263
2,7,10, 7, 0,16, 0.00,60.00,Sunday
2232,75.62805479675639
2233,47.10887718198017
5265,8282.874299464771
2,7,10, 7, 0,17, 0.00,60.00,Sunday
2232,37.9361221336054
2233,23.415966477202646
5265,8346.15362769769
2,7,10, 7, 0,18, 0.00,60.00,Sunday
2232,3.8770836154116936
2233,2.366042394528277
5265,8381.194342424771
2,7,10, 7, 0,19, 0.00,60.00,Sunday
2232,0.0
2233,0.0
5265,8346.99225221711
2,7,10, 7, 0,20, 0.00,60.00,Sunday
2232,0.0
2233,0.0
5265,8292.675426814672
2,7,10, 7, 0,21, 0.00,60.00,Sunday
2232,0.0
2233,0.0
5265,8241.201722862339
2,7,10, 7, 0,22, 0.00,60.00,Sunday
2232,0.0
2233,0.0
5265,8182.7270854134185
2,7,10, 7, 0,23, 0.00,60.00,Sunday
2232,0.0
2233,0.0
5265,8116.935100490799
2,7,10, 7, 0,24, 0.00,60.00,Sunday
2232,0.0
2233,0.0
5265,8073.460083694924
2,8,10, 8, 0, 1, 0.00,60.00,Monday
2232,0.0
2233,0.0
5265,7700.771571592064
2,8,10, 8, 0, 2, 0.00,60.00,Monday
2232,0.0
2233,0.0
5265,7745.2120279901255
2,8,10, 8, 0, 3, 0.00,60.00,Monday
2232,0.0
2233,0.0
5265,7692.45577994639
2,8,10, 8, 0, 4, 0.00,60.00,Monday
2232,0.0
2233,0.0
5265,7618.318361693061
2,8,10, 8, 0, 5, 0.00,60.00,Monday
2232,0.0
2233,0.0
5265,7550.809123135042
2,8,10, 8, 0, 6, 0.00,60.00,Monday
2232,13.788871223077172
2233,5.817653712164346
5265,7497.418424476993
2,8,10, 8, 0, 7, 0.00,60.00,Monday
2232,83.15616795842402
2233,35.73178266694233
5265,7473.771178989881
2,8,10, 8, 0, 8, 0.00,60.00,Monday
2232,107.68456219060944
2233,67.25502205811525
5265,29277.84489993137
2,8,10, 8, 0, 9, 0.00,60.00,Monday
2232,148.8595497576105
2233,93.62577019477264
5265,60368.1993224339
2,8,10, 8, 0,10, 0.00,60.00,Monday
2232,156.1176328556947
2233,100.08175205491136
5265,88311.49903127004
2,8,10, 8, 0,11, 0.00,60.00,Monday
2232,144.56157395886565
2233,94.81834393122863
5265,90520.99822065437
2,8,10, 8, 0,12, 0.00,60.00,Monday
2232,129.11581011715638
2233,85.51925257948882
5265,129792.12710571669
2,8,10, 8, 0,13, 0.00,60.00,Monday
2232,116.03764252537424
2233,76.1742757674855
5265,132443.53446067879
2,8,10, 8, 0,14, 0.00,60.00,Monday
2232,98.54780022608753
2233,63.51869774930378
5265,165532.98591288634
2,8,10, 8, 0,15, 0.00,60.00,Monday
2232,79.95314818337651
2233,50.631171053770177
5265,174822.41050804684
2,8,10, 8, 0,16, 0.00,60.00,Monday
2232,55.75242226031664
2233,35.04342502440115
5265,156185.77010739383
2,8,10, 8, 0,17, 0.00,60.00,Monday
2232,26.85554972330307
2233,17.00946703872598
5265,135130.91527428138
2,8,10, 8, 0,18, 0.00,60.00,Monday
2232,2.773179751258495
2233,1.7460014330504433
5265,52373.42386057368
2,8,10, 8, 0,19, 0.00,60.00,Monday
2232,0.0
2233,0.0
5265,25742.620692718116
2,8,10, 8, 0,20, 0.00,60.00,Monday
2232,0.0
2233,0.0
5265,10856.941107659915
2,8,10, 8, 0,21, 0.00,60.00,Monday
2232,0.0
2233,0.0
5265,8428.072593938568
2,8,10, 8, 0,22, 0.00,60.00,Monday
2232,0.0
2233,0.0
5265,7979.515682895842
2,8,10, 8, 0,23, 0.00,60.00,Monday
2232,0.0
2233,0.0
5265,7943.407181090675
2,8,10, 8, 0,24, 0.00,60.00,Monday
2232,0.0
2233,0.0
5265,7915.20958800906
2,9,10, 9, 0, 1, 0.00,60.00,Tuesday
2232,0.0
2233,0.0
5265,7120.5915495956
2,9,10, 9, 0, 2, 0.00,60.00,Tuesday
2232,0.0
2233,0.0
5265,7209.060658572204
2,9,10, 9, 0, 3, 0.00,60.00,Tuesday
2232,0.0
2233,0.0
5265,7156.0524311713125
2,9,10, 9, 0, 4, 0.00,60.00,Tuesday
2232,0.0
2233,0.0
5265,7082.27549654003
2,9,10, 9, 0, 5, 0.00,60.00,Tuesday
2232,0.0
2233,0.0
5265,7004.165349128461
2,9,10, 9, 0, 6, 0.00,60.00,Tuesday
2232,26.61379792750414
2233,10.195399890286704
5265,7131.557591274628
2,9,10, 9, 0, 7, 0.00,60.00,Tuesday
2232,181.0450674384467
2233,65.64944806053566
5265,7521.2229145925885
2,9,10, 9, 0, 8, 0.00,60.00,Tuesday
2232,185.79518535324858
2233,112.71305349464099
5265,20824.87459793616
2,9,10, 9, 0, 9, 0.00,60.00,Tuesday
2232,217.6036621625368
2233,134.34468124083365
5265,73756.13269972452
2,9,10, 9, 0,10, 0.00,60.00,Tuesday
2232,202.8622645889145
2233,128.36193590953449
5265,105930.40578041096
2,9,10, 9, 0,11, 0.00,60.00,Tuesday
2232,165.73596745207645
2233,108.17742167779523
5265,114656.41314901097
2,9,10, 9, 0,12, 0.00,60.00,Tuesday
2232,140.7120358058217
2233,93.71243077816253
5265,152615.40390270897
2,9,10, 9, 0,13, 0.00,60.00,Tuesday
2232,139.12574155896474
2233,91.40307043513131
5265,144445.8509896216
2,9,10, 9, 0,14, 0.00,60.00,Tuesday
2232,140.03613956577184
2233,89.11063735861122
5265,168170.7957751843
2,9,10, 9, 0,15, 0.00,60.00,Tuesday
2232,117.78273378600038
2233,72.836555768319
5265,147194.30467866807
2,9,10, 9, 0,16, 0.00,60.00,Tuesday
2232,79.11267485631419
2233,48.94460106730295
5265,149761.6536268493
2,9,10, 9, 0,17, 0.00,60.00,Tuesday
2232,32.810974435601938
2233,20.54849380730742
5265,125507.83279368289
2,9,10, 9, 0,18, 0.00,60.00,Tuesday
2232,3.0988294095283495
2233,1.9300870389971475
5265,111275.59807797359
2,9,10, 9, 0,19, 0.00,60.00,Tuesday
2232,0.0
2233,0.0
5265,66395.64673134801
2,9,10, 9, 0,20, 0.00,60.00,Tuesday
2232,0.0
2233,0.0
5265,32350.15317562237
2,9,10, 9, 0,21, 0.00,60.00,Tuesday
2232,0.0
2233,0.0
5265,8656.830151107755
2,9,10, 9, 0,22, 0.00,60.00,Tuesday
2232,0.0
2233,0.0
5265,8394.976009909158
2,9,10, 9, 0,23, 0.00,60.00,Tuesday
2232,0.0
2233,0.0
5265,8304.569351438606
2,9,10, 9, 0,24, 0.00,60.00,Tuesday
2232,0.0
2233,0.0
5265,8258.633443928307
2,10,10,10, 0, 1, 0.00,60.00,Wednesday
2232,0.0
2233,0.0
5265,8229.035587689104
2,10,10,10, 0, 2, 0.00,60.00,Wednesday
2232,0.0
2233,0.0
5265,8203.793163465934
2,10,10,10, 0, 3, 0.00,60.00,Wednesday
2232,0.0
2233,0.0
5265,8174.521310340281
2,10,10,10, 0, 4, 0.00,60.00,Wednesday
2232,0.0
2233,0.0
5265,8125.456259642415
2,10,10,10, 0, 5, 0.00,60.00,Wednesday
2232,0.0
2233,0.0
5265,8006.01816211523
2,10,10,10, 0, 6, 0.00,60.00,Wednesday
2232,14.203539526256558
2233,6.010164382940865
5265,8027.041098091223
2,10,10,10, 0, 7, 0.00,60.00,Wednesday
2232,84.29526596949987
2233,36.25603775885321
5265,8195.323882729324
2,10,10,10, 0, 8, 0.00,60.00,Wednesday
2232,105.61661600376938
2233,65.85415449391282
5265,25401.093808891106
2,10,10,10, 0, 9, 0.00,60.00,Wednesday
2232,159.82705081409507
2233,100.47043407303493
5265,81059.40467789503
2,10,10,10, 0,10, 0.00,60.00,Wednesday
2232,168.14027309396475
2233,107.78618139180036
5265,113668.28831425817
2,10,10,10, 0,11, 0.00,60.00,Wednesday
2232,149.4379935666693
2233,98.1861895813801
5265,135718.55638765024
2,10,10,10, 0,12, 0.00,60.00,Wednesday
2232,121.16634825499129
2233,81.01889297323327
5265,171932.80738964678
2,10,10,10, 0,13, 0.00,60.00,Wednesday
2232,130.462015324205
2233,85.65188545365023
5265,172176.8923566023
2,10,10,10, 0,14, 0.00,60.00,Wednesday
2232,137.27297753285135
2233,87.21326560065973
5265,172376.13604443617
2,10,10,10, 0,15, 0.00,60.00,Wednesday
2232,128.457896369092
2233,79.39908525030187
5265,178799.15024260965
2,10,10,10, 0,16, 0.00,60.00,Wednesday
2232,97.77926486223076
2233,59.52254152149667
5265,145204.01779587699
2,10,10,10, 0,17, 0.00,60.00,Wednesday
2232,50.47548653210918
2233,30.53819138321167
5265,83762.77910763545
2,10,10,10, 0,18, 0.00,60.00,Wednesday
2232,5.328180265207067
2233,3.1800331197994047
5265,52929.779003129224
2,10,10,10, 0,19, 0.00,60.00,Wednesday
2232,0.0
2233,0.0
5265,23338.911972433027
2,10,10,10, 0,20, 0.00,60.00,Wednesday
2232,0.0
2233,0.0
5265,9365.682073321525
2,10,10,10, 0,21, 0.00,60.00,Wednesday
2232,0.0
2233,0.0
5265,8908.760575751769
2,10,10,10, 0,22, 0.00,60.00,Wednesday
2232,0.0
2233,0.0
5265,8464.123618059764
2,10,10,10, 0,23, 0.00,60.00,Wednesday
2232,0.0
2233,0.0
5265,8432.466512968485
2,10,10,10, 0,24, 0.00,60.00,Wednesday
2232,0.0
2233,0.0
5265,8395.131578654298
2,11,10,11, 0, 1, 0.00,60.00,Thursday
2232,0.0
2233,0.0
5265,8344.516751920219
2,11,10,11, 0, 2, 0.00,60.00,Thursday
2232,0.0
2233,0.0
5265,8283.973074893398
2,11,10,11, 0, 3, 0.00,60.00,Thursday
2232,0.0
2233,0.0
5265,8244.031929203144
2,11,10,11, 0, 4, 0.00,60.00,Thursday
2232,0.0
2233,0.0
5265,8217.444576781325
2,11,10,11, 0, 5, 0.00,60.00,Thursday
2232,0.0
2233,0.0
5265,8191.053849850247
2,11,10,11, 0, 6, 0.00,60.00,Thursday
2232,16.58559245835421
2233,6.737468909249
5265,8212.638669889111
2,11,10,11, 0, 7, 0.00,60.00,Thursday
2232,100.39026005122655
2233,41.59192846318933
5265,8318.639162268935
2,11,10,11, 0, 8, 0.00,60.00,Thursday
2232,120.0755383600379
2233,75.01551856599486
5265,23844.941872967025
2,11,10,11, 0, 9, 0.00,60.00,Thursday
2232,153.54347255887016
2233,96.51396435021941
5265,114448.10334656855
2,11,10,11, 0,10, 0.00,60.00,Thursday
2232,156.23782782873949
2233,100.13251881962901
5265,148920.25597647075
2,11,10,11, 0,11, 0.00,60.00,Thursday
2232,145.0085828205833
2233,95.08059365333105
5265,167482.7937966199
2,11,10,11, 0,12, 0.00,60.00,Thursday
2232,136.82447284123254
2233,90.81638505525014
5265,169462.73784741466
2,11,10,11, 0,13, 0.00,60.00,Thursday
2232,131.88638788500436
2233,86.78872794288945
5265,172214.68894950144
2,11,10,11, 0,14, 0.00,60.00,Thursday
2232,125.38126243550657
2233,80.36754596767801
5265,184391.56150986497
2,11,10,11, 0,15, 0.00,60.00,Thursday
2232,109.58206737610546
2233,68.77875864197948
5265,180401.53275720255
2,11,10,11, 0,16, 0.00,60.00,Thursday
2232,77.56482313052864
2233,48.11383124818416
5265,182044.1450029692
2,11,10,11, 0,17, 0.00,60.00,Thursday
2232,37.00085893878729
2233,22.769841639237659
5265,168454.46572894808
2,11,10,11, 0,18, 0.00,60.00,Thursday
2232,3.7687239004428148
2233,2.297526273143184
5265,88505.85203977418
2,11,10,11, 0,19, 0.00,60.00,Thursday
2232,0.0
2233,0.0
5265,63660.93665239619
2,11,10,11, 0,20, 0.00,60.00,Thursday
2232,0.0
2233,0.0
5265,45720.00231697888
2,11,10,11, 0,21, 0.00,60.00,Thursday
2232,0.0
2233,0.0
5265,8469.398074218532
2,11,10,11, 0,22, 0.00,60.00,Thursday
2232,0.0
2233,0.0
5265,8423.894726082908
2,11,10,11, 0,23, 0.00,60.00,Thursday
2232,0.0
2233,0.0
5265,8382.4263712918
2,11,10,11, 0,24, 0.00,60.00,Thursday
2232,0.0
2233,0.0
5265,8335.936121752626
2,12,10,12, 0, 1, 0.00,60.00,Friday
2232,0.0
2233,0.0
5265,8264.511717651383
2,12,10,12, 0, 2, 0.00,60.00,Friday
2232,0.0
2233,0.0
5265,8186.135222060075
2,12,10,12, 0, 3, 0.00,60.00,Friday
2232,0.0
2233,0.0
5265,8152.346726304557
2,12,10,12, 0, 4, 0.00,60.00,Friday
2232,0.0
2233,0.0
5265,8188.770379961229
2,12,10,12, 0, 5, 0.00,60.00,Friday
2232,0.0
2233,0.0
5265,8226.176591605361
2,12,10,12, 0, 6, 0.00,60.00,Friday
2232,15.54321379743123
2233,6.413438329380631
5265,8260.891523403945
2,12,10,12, 0, 7, 0.00,60.00,Friday
2232,97.16288901459626
2233,40.68853853357839
5265,8331.120137556709
2,12,10,12, 0, 8, 0.00,60.00,Friday
2232,122.73312767738418
2233,76.74834009395198
5265,29224.685340325046
2,12,10,12, 0, 9, 0.00,60.00,Friday
2232,158.28614614383924
2233,99.49238268267055
5265,92036.87287683533
2,12,10,12, 0,10, 0.00,60.00,Friday
2232,160.37838253242684
2233,102.77226405701778
5265,150659.9590590146
2,12,10,12, 0,11, 0.00,60.00,Friday
2232,146.42311280769239
2233,96.04388508516361
5265,149064.83924245466
2,12,10,12, 0,12, 0.00,60.00,Friday
2232,134.4743583449385
2233,89.19375912000045
5265,151911.01684419963
2,12,10,12, 0,13, 0.00,60.00,Friday
2232,127.05985670724492
2233,83.48025330356302
5265,161246.28561322523
2,12,10,12, 0,14, 0.00,60.00,Friday
2232,119.57949942288548
2233,76.73992967934342
5265,168624.99140850086
2,12,10,12, 0,15, 0.00,60.00,Friday
2232,104.05934635358095
2233,65.35181588919287
5265,148984.69100767835
2,12,10,12, 0,16, 0.00,60.00,Friday
2232,75.06758398226599
2233,46.721252591692159
5265,131967.6763847257
2,12,10,12, 0,17, 0.00,60.00,Friday
2232,35.078465589663377
2233,21.713050494384566
5265,122254.06469989226
2,12,10,12, 0,18, 0.00,60.00,Friday
2232,3.474824570399854
2233,2.1276252564772739
5265,56022.65632710729
2,12,10,12, 0,19, 0.00,60.00,Friday
2232,0.0
2233,0.0
5265,29689.97272809756
2,12,10,12, 0,20, 0.00,60.00,Friday
2232,0.0
2233,0.0
5265,18675.157824689173
2,12,10,12, 0,21, 0.00,60.00,Friday
2232,0.0
2233,0.0
5265,13467.812602408218
2,12,10,12, 0,22, 0.00,60.00,Friday
2232,0.0
2233,0.0
5265,8283.892801662207
2,12,10,12, 0,23, 0.00,60.00,Friday
2232,0.0
2233,0.0
5265,8186.292397688251
2,12,10,12, 0,24, 0.00,60.00,Friday
2232,0.0
2233,0.0
5265,8118.627805074569
2,13,10,13, 0, 1, 0.00,60.00,Saturday
2232,0.0
2233,0.0
5265,8108.414351134211
2,13,10,13, 0, 2, 0.00,60.00,Saturday
2232,0.0
2233,0.0
5265,8111.490549122773
2,13,10,13, 0, 3, 0.00,60.00,Saturday
2232,0.0
2233,0.0
5265,8114.530081733615
2,13,10,13, 0, 4, 0.00,60.00,Saturday
2232,0.0
2233,0.0
5265,8108.593200076921
2,13,10,13, 0, 5, 0.00,60.00,Saturday
2232,0.0
2233,0.0
5265,8102.801054807721
2,13,10,13, 0, 6, 0.00,60.00,Saturday
2232,16.61789212162037
2233,6.730395678242992
5265,8132.4947235813825
2,13,10,13, 0, 7, 0.00,60.00,Saturday
2232,100.39119035785461
2233,41.497115346498137
5265,8241.252406074957
2,13,10,13, 0, 8, 0.00,60.00,Saturday
2232,120.1853772088419
2233,75.10098816053318
5265,8386.178892149743
2,13,10,13, 0, 9, 0.00,60.00,Saturday
2232,157.68939460494895
2233,99.1156433601925
5265,58373.32596806306
2,13,10,13, 0,10, 0.00,60.00,Saturday
2232,161.5674123164961
2233,103.5323700772858
5265,82976.19788644194
2,13,10,13, 0,11, 0.00,60.00,Saturday
2232,147.4941543191043
2233,96.76727001400313
5265,93944.89571905507
2,13,10,13, 0,12, 0.00,60.00,Saturday
2232,136.02682860454198
2233,90.31820285801367
5265,84461.18877005419
2,13,10,13, 0,13, 0.00,60.00,Saturday
2232,129.89668775100518
2233,85.43537603336967
5265,64054.98782280532
2,13,10,13, 0,14, 0.00,60.00,Saturday
2232,123.9432591145728
2233,79.55704851976356
5265,57461.95577778094
2,13,10,13, 0,15, 0.00,60.00,Saturday
2232,107.59756200552363
2233,67.53852766315018
5265,57597.390666200845
2,13,10,13, 0,16, 0.00,60.00,Saturday
2232,77.1947817748851
2233,47.8275674948057
5265,51791.22756704006
2,13,10,13, 0,17, 0.00,60.00,Saturday
2232,35.9498966177891
2233,22.151724639381034
5265,42198.67781425165
2,13,10,13, 0,18, 0.00,60.00,Saturday
2232,3.5655683378310338
2233,2.1743929066035219
5265,36060.23411647522
2,13,10,13, 0,19, 0.00,60.00,Saturday
2232,0.0
2233,0.0
5265,28645.982240586793
2,13,10,13, 0,20, 0.00,60.00,Saturday
2232,0.0
2233,0.0
5265,12673.554153552186
2,13,10,13, 0,21, 0.00,60.00,Saturday
2232,0.0
2233,0.0
5265,12506.713688496066
2,13,10,13, 0,22, 0.00,60.00,Saturday
2232,0.0
2233,0.0
5265,8685.216597772394
2,13,10,13, 0,23, 0.00,60.00,Saturday
2232,0.0
2233,0.0
5265,8440.739820521716
2,13,10,13, 0,24, 0.00,60.00,Saturday
2232,0.0
2233,0.0
5265,8353.710354973944