Program Version,EnergyPlus, Version 8.7.0-78a111df4a, YMD=2019.11.22 13:28
1,5,Environment Title[],Latitude[deg],Longitude[deg],Time Zone[],Elevation[m]
2,6,Day of Simulation[],Month[],Day of Month[],DST Indicator[1=yes 0=no],Hour[],StartMinute[],EndMinute[],DayType
3,3,Cumulative Day of Simulation[],Month[],Day of Month[],DST Indicator[1=yes 0=no],DayType  ! When Daily Report Variables Requested
4,2,Cumulative Days of Simulation[],Month[]  ! When Monthly Report Variables Requested
5,1,Cumulative Days of Simulation[] ! When Run Period Report Variables Requested
2232,1,AF305DAYLIGHINGCONTROL,Daylighting Reference Point 1 Illuminance [lux] !Hourly
2233,1,AF305DAYLIGHINGCONTROL,Daylighting Reference Point 2 Illuminance [lux] !Hourly
5265,1,Whole Building,Facility Total Electric Demand Power [W] !Hourly
End of Data Dictionary
1,RUNPERIOD,  10.30, 123.97,   8.00,  24.00
2,1,10, 1, 0, 1, 0.00,60.00,Monday
2232,0.0
2233,0.0
5265,7963.017272001282
2,1,10, 1, 0, 2, 0.00,60.00,Monday
2232,0.0
2233,0.0
5265,7877.944968411619
2,1,10, 1, 0, 3, 0.00,60.00,Monday
2232,0.0
2233,0.0
5265,7740.801417253136
2,1,10, 1, 0, 4, 0.00,60.00,Monday
2232,0.0
2233,0.0
5265,7672.267153196008
2,1,10, 1, 0, 5, 0.00,60.00,Monday
2232,0.0
2233,0.0
5265,7608.173297778648
2,1,10, 1, 0, 6, 0.00,60.00,Monday
2232,144.04360255607558
2233,52.10161036052367
5265,7667.6595646182
2,1,10, 1, 0, 7, 0.00,60.00,Monday
2232,980.6092678628802
2233,313.59829885634857
5265,7805.949225552012
2,1,10, 1, 0, 8, 0.00,60.00,Monday
2232,791.8619482100042
2233,476.71039563950697
5265,29706.342257138924
2,1,10, 1, 0, 9, 0.00,60.00,Monday
2232,888.2659045662976
2233,549.5092053727284
5265,61874.24681707583
2,1,10, 1, 0,10, 0.00,60.00,Monday
2232,823.2666610554179
2233,523.8050376990894
5265,96309.80478936382
2,1,10, 1, 0,11, 0.00,60.00,Monday
2232,670.3625840234196
2233,440.290094405995
5265,98030.95370563143
2,1,10, 1, 0,12, 0.00,60.00,Monday
2232,525.8355428169792
2233,353.1215644540426
5265,141694.39927415169
2,1,10, 1, 0,13, 0.00,60.00,Monday
2232,518.6613894874386
2233,343.7248866698935
5265,145111.92594510859
2,1,10, 1, 0,14, 0.00,60.00,Monday
2232,499.9651993771749
2233,322.8989926775591
5265,170382.44821892796
2,1,10, 1, 0,15, 0.00,60.00,Monday
2232,393.1113027428151
2233,248.7501969617288
5265,177616.67556937345
2,1,10, 1, 0,16, 0.00,60.00,Monday
2232,257.53905684075547
2233,162.16272348352286
5265,158774.61786176565
2,1,10, 1, 0,17, 0.00,60.00,Monday
2232,104.84681902673602
2233,66.91418534709847
5265,137267.5701978904
2,1,10, 1, 0,18, 0.00,60.00,Monday
2232,11.896611312718603
2233,7.583873194092161
5265,52789.03110526993
2,1,10, 1, 0,19, 0.00,60.00,Monday
2232,0.0
2233,0.0
5265,26000.55588710556
2,1,10, 1, 0,20, 0.00,60.00,Monday
2232,0.0
2233,0.0
5265,10994.510620013816
2,1,10, 1, 0,21, 0.00,60.00,Monday
2232,0.0
2233,0.0
5265,8577.829551667242
2,1,10, 1, 0,22, 0.00,60.00,Monday
2232,0.0
2233,0.0
5265,8150.59601330973
2,1,10, 1, 0,23, 0.00,60.00,Monday
2232,0.0
2233,0.0
5265,8136.9201480324655
2,1,10, 1, 0,24, 0.00,60.00,Monday
2232,0.0
2233,0.0
5265,8119.429471205141
2,2,10, 2, 0, 1, 0.00,60.00,Tuesday
2232,0.0
2233,0.0
5265,7871.989536985077
2,2,10, 2, 0, 2, 0.00,60.00,Tuesday
2232,0.0
2233,0.0
5265,7779.889530858968
2,2,10, 2, 0, 3, 0.00,60.00,Tuesday
2232,0.0
2233,0.0
5265,7669.911163300875
2,2,10, 2, 0, 4, 0.00,60.00,Tuesday
2232,0.0
2233,0.0
5265,7553.677197479301
2,2,10, 2, 0, 5, 0.00,60.00,Tuesday
2232,0.0
2233,0.0
5265,7426.659325282028
2,2,10, 2, 0, 6, 0.00,60.00,Tuesday
2232,144.83195908648819
2233,53.11492929890147
5265,7538.586049274793
2,2,10, 2, 0, 7, 0.00,60.00,Tuesday
2232,995.9588042231159
2233,322.00263945128406
5265,7974.399664843698
2,2,10, 2, 0, 8, 0.00,60.00,Tuesday
2232,837.0926181609312
2233,497.07551433040438
5265,21087.60269106644
2,2,10, 2, 0, 9, 0.00,60.00,Tuesday
2232,917.5160582038435
2233,565.6293180651753
5265,82563.76969170138
2,2,10, 2, 0,10, 0.00,60.00,Tuesday
2232,839.6912621973383
2233,533.5167493005764
5265,115319.09781222265
2,2,10, 2, 0,11, 0.00,60.00,Tuesday
2232,651.957792702763
2233,428.3929165918446
5265,121025.86507963711
2,2,10, 2, 0,12, 0.00,60.00,Tuesday
2232,541.6911923230083
2233,363.0805621566133
5265,151861.17695253765
2,2,10, 2, 0,13, 0.00,60.00,Tuesday
2232,521.9068539190862
2233,345.0042108470073
5265,136669.34117165485
2,2,10, 2, 0,14, 0.00,60.00,Tuesday
2232,442.81174401292238
2233,286.21228686545728
5265,154253.42383410608
2,2,10, 2, 0,15, 0.00,60.00,Tuesday
2232,368.1370840225996
2233,233.38129136487707
5265,130426.18854546525
2,2,10, 2, 0,16, 0.00,60.00,Tuesday
2232,258.351012730045
2233,162.60891342041888
5265,135213.77790070963
2,2,10, 2, 0,17, 0.00,60.00,Tuesday
2232,131.06543671333044
2233,83.20207273880452
5265,111029.81926572095
2,2,10, 2, 0,18, 0.00,60.00,Tuesday
2232,14.787740679253938
2233,9.329710600378656
5265,109442.80950072548
2,2,10, 2, 0,19, 0.00,60.00,Tuesday
2232,0.0
2233,0.0
5265,64257.629846997384
2,2,10, 2, 0,20, 0.00,60.00,Tuesday
2232,0.0
2233,0.0
5265,31289.917712876064
2,2,10, 2, 0,21, 0.00,60.00,Tuesday
2232,0.0
2233,0.0
5265,8631.990493445248
2,2,10, 2, 0,22, 0.00,60.00,Tuesday
2232,0.0
2233,0.0
5265,8386.292650869234
2,2,10, 2, 0,23, 0.00,60.00,Tuesday
2232,0.0
2233,0.0
5265,8335.223156199596
2,2,10, 2, 0,24, 0.00,60.00,Tuesday
2232,0.0
2233,0.0
5265,8295.605639180341
2,3,10, 3, 0, 1, 0.00,60.00,Wednesday
2232,0.0
2233,0.0
5265,8219.10815841262
2,3,10, 3, 0, 2, 0.00,60.00,Wednesday
2232,0.0
2233,0.0
5265,8122.282520187309
2,3,10, 3, 0, 3, 0.00,60.00,Wednesday
2232,0.0
2233,0.0
5265,7992.530025255056
2,3,10, 3, 0, 4, 0.00,60.00,Wednesday
2232,0.0
2233,0.0
5265,7930.962564568536
2,3,10, 3, 0, 5, 0.00,60.00,Wednesday
2232,0.0
2233,0.0
5265,7859.024199148723
2,3,10, 3, 0, 6, 0.00,60.00,Wednesday
2232,55.88446354223159
2233,23.938801864746457
5265,7900.038331615531
2,3,10, 3, 0, 7, 0.00,60.00,Wednesday
2232,346.5945466350422
2233,150.9526667131042
5265,8081.749050242851
2,3,10, 3, 0, 8, 0.00,60.00,Wednesday
2232,479.15944936429715
2233,301.15336363032847
5265,25186.879516356843
2,3,10, 3, 0, 9, 0.00,60.00,Wednesday
2232,673.474991364907
2233,425.95171244208037
5265,75803.70104676538
2,3,10, 3, 0,10, 0.00,60.00,Wednesday
2232,687.8653317761399
2233,443.43802396309885
5265,112799.53827575244
2,3,10, 3, 0,11, 0.00,60.00,Wednesday
2232,616.5879112643204
2233,407.0012900230525
5265,133466.99861746157
2,3,10, 3, 0,12, 0.00,60.00,Wednesday
2232,541.3115142201508
2233,360.7788891432704
5265,164885.22982251386
2,3,10, 3, 0,13, 0.00,60.00,Wednesday
2232,472.7621794570496
2233,312.1354685632385
5265,155895.84815739288
2,3,10, 3, 0,14, 0.00,60.00,Wednesday
2232,412.08893173227588
2233,267.0177118005895
5265,152953.2584435114
2,3,10, 3, 0,15, 0.00,60.00,Wednesday
2232,380.47545711350997
2233,240.99968717710844
5265,158430.76462878925
2,3,10, 3, 0,16, 0.00,60.00,Wednesday
2232,304.77155454783647
2233,191.24613501209113
5265,123689.40236287425
2,3,10, 3, 0,17, 0.00,60.00,Wednesday
2232,160.1274613539675
2233,99.54941814765579
5265,68641.87615896687
2,3,10, 3, 0,18, 0.00,60.00,Wednesday
2232,19.200721011188198
2233,11.768503043129935
5265,52189.27514080168
2,3,10, 3, 0,19, 0.00,60.00,Wednesday
2232,0.0
2233,0.0
5265,22665.831820035444
2,3,10, 3, 0,20, 0.00,60.00,Wednesday
2232,0.0
2233,0.0
5265,9043.168982406913
2,3,10, 3, 0,21, 0.00,60.00,Wednesday
2232,0.0
2233,0.0
5265,8520.475370207962
2,3,10, 3, 0,22, 0.00,60.00,Wednesday
2232,0.0
2233,0.0
5265,8100.672502758949
2,3,10, 3, 0,23, 0.00,60.00,Wednesday
2232,0.0
2233,0.0
5265,8126.978242122001
2,3,10, 3, 0,24, 0.00,60.00,Wednesday
2232,0.0
2233,0.0
5265,8124.365848511068
2,4,10, 4, 0, 1, 0.00,60.00,Thursday
2232,0.0
2233,0.0
5265,8060.245677732455
2,4,10, 4, 0, 2, 0.00,60.00,Thursday
2232,0.0
2233,0.0
5265,7985.0548774862555
2,4,10, 4, 0, 3, 0.00,60.00,Thursday
2232,0.0
2233,0.0
5265,7924.356628214905
2,4,10, 4, 0, 4, 0.00,60.00,Thursday
2232,0.0
2233,0.0
5265,7909.207559840378
2,4,10, 4, 0, 5, 0.00,60.00,Thursday
2232,0.0
2233,0.0
5265,7907.254894739054
2,4,10, 4, 0, 6, 0.00,60.00,Thursday
2232,76.09661800288596
2233,29.85960203395706
5265,7929.302935569056
2,4,10, 4, 0, 7, 0.00,60.00,Thursday
2232,481.32697923120608
2233,191.97833135186793
5265,8000.980985159746
2,4,10, 4, 0, 8, 0.00,60.00,Thursday
2232,575.2300139186533
2233,360.9494962787073
5265,22700.72155362889
2,4,10, 4, 0, 9, 0.00,60.00,Thursday
2232,697.2043997437685
2233,440.87168336546707
5265,96413.77052733943
2,4,10, 4, 0,10, 0.00,60.00,Thursday
2232,687.1837348923873
2233,443.1337888891256
5265,132216.6008294253
2,4,10, 4, 0,11, 0.00,60.00,Thursday
2232,613.8206403987787
2233,405.20683952372777
5265,157496.03587683265
2,4,10, 4, 0,12, 0.00,60.00,Thursday
2232,559.1893386496936
2233,373.2804995310277
5265,161824.1910705235
2,4,10, 4, 0,13, 0.00,60.00,Thursday
2232,529.0104290883695
2233,349.7070690853786
5265,164422.44411525236
2,4,10, 4, 0,14, 0.00,60.00,Thursday
2232,497.02803362670019
2233,320.85681084571226
5265,176311.94640655805
2,4,10, 4, 0,15, 0.00,60.00,Thursday
2232,450.12810259187179
2233,284.26300185637259
5265,165973.6492244501
2,4,10, 4, 0,16, 0.00,60.00,Thursday
2232,335.26784615452086
2233,208.44780559244968
5265,172266.27029975723
2,4,10, 4, 0,17, 0.00,60.00,Thursday
2232,171.493707988666
2233,105.58044793899183
5265,160454.3946169028
2,4,10, 4, 0,18, 0.00,60.00,Thursday
2232,22.64350483817503
2233,13.788113807810677
5265,87298.28440074984
2,4,10, 4, 0,19, 0.00,60.00,Thursday
2232,0.0
2233,0.0
5265,62352.45226679617
2,4,10, 4, 0,20, 0.00,60.00,Thursday
2232,0.0
2233,0.0
5265,44481.81365281241
2,4,10, 4, 0,21, 0.00,60.00,Thursday
2232,0.0
2233,0.0
5265,8250.419480336404
2,4,10, 4, 0,22, 0.00,60.00,Thursday
2232,0.0
2233,0.0
5265,8238.360843048538
2,4,10, 4, 0,23, 0.00,60.00,Thursday
2232,0.0
2233,0.0
5265,8235.496406499775
2,4,10, 4, 0,24, 0.00,60.00,Thursday
2232,0.0
2233,0.0
5265,8191.882756048563
2,5,10, 5, 0, 1, 0.00,60.00,Friday
2232,0.0
2233,0.0
5265,8095.206772814917
2,5,10, 5, 0, 2, 0.00,60.00,Friday
2232,0.0
2233,0.0
5265,7996.323249992221
2,5,10, 5, 0, 3, 0.00,60.00,Friday
2232,0.0
2233,0.0
5265,7931.840545747746
2,5,10, 5, 0, 4, 0.00,60.00,Friday
2232,0.0
2233,0.0
5265,7915.329472777436
2,5,10, 5, 0, 5, 0.00,60.00,Friday
2232,0.0
2233,0.0
5265,7907.040288792581
2,5,10, 5, 0, 6, 0.00,60.00,Friday
2232,108.74401222075744
2233,41.694490750903138
5265,7922.972001138162
2,5,10, 5, 0, 7, 0.00,60.00,Friday
2232,708.5820992639489
2233,257.6827984914951
5265,7981.209672108217
2,5,10, 5, 0, 8, 0.00,60.00,Friday
2232,629.4782676013263
2233,393.4167214378413
5265,28014.380316179497
2,5,10, 5, 0, 9, 0.00,60.00,Friday
2232,724.1262265202745
2233,456.5700830893547
5265,70319.01216192164
2,5,10, 5, 0,10, 0.00,60.00,Friday
2232,677.8564102821016
2233,437.0385973050846
5265,137594.93103974139
2,5,10, 5, 0,11, 0.00,60.00,Friday
2232,603.2099611204226
2233,398.17169326393516
5265,136158.9478709906
2,5,10, 5, 0,12, 0.00,60.00,Friday
2232,532.3970741104805
2233,357.1230066560168
5265,142519.65220258226
2,5,10, 5, 0,13, 0.00,60.00,Friday
2232,531.8521209959372
2233,351.342950724322
5265,156296.46167873266
2,5,10, 5, 0,14, 0.00,60.00,Friday
2232,571.3854407635744
2233,365.5563800539733
5265,166606.7512950498
2,5,10, 5, 0,15, 0.00,60.00,Friday
2232,524.3016490555525
2233,325.9387806071333
5265,145363.70663904245
2,5,10, 5, 0,16, 0.00,60.00,Friday
2232,352.61800684555717
2233,216.485551412844
5265,126677.22159536423
2,5,10, 5, 0,17, 0.00,60.00,Friday
2232,169.55146190282006
2233,104.22964831510399
5265,117316.33943341281
2,5,10, 5, 0,18, 0.00,60.00,Friday
2232,18.64062134790251
2233,11.382970371839634
5265,55630.456451637205
2,5,10, 5, 0,19, 0.00,60.00,Friday
2232,0.0
2233,0.0
5265,29414.28550229617
2,5,10, 5, 0,20, 0.00,60.00,Friday
2232,0.0
2233,0.0
5265,18544.724003834835
2,5,10, 5, 0,21, 0.00,60.00,Friday
2232,0.0
2233,0.0
5265,13414.022135361987
2,5,10, 5, 0,22, 0.00,60.00,Friday
2232,0.0
2233,0.0
5265,8304.737795426134
2,5,10, 5, 0,23, 0.00,60.00,Friday
2232,0.0
2233,0.0
5265,8277.06456427606
2,5,10, 5, 0,24, 0.00,60.00,Friday
2232,0.0
2233,0.0
5265,8254.17180377928
2,6,10, 6, 0, 1, 0.00,60.00,Saturday
2232,0.0
2233,0.0
5265,8229.446580469854
2,6,10, 6, 0, 2, 0.00,60.00,Saturday
2232,0.0
2233,0.0
5265,8214.045773782507
2,6,10, 6, 0, 3, 0.00,60.00,Saturday
2232,0.0
2233,0.0
5265,8188.439434952014
2,6,10, 6, 0, 4, 0.00,60.00,Saturday
2232,0.0
2233,0.0
5265,8167.347067399972
2,6,10, 6, 0, 5, 0.00,60.00,Saturday
2232,0.0
2233,0.0
5265,8150.21143241839
2,6,10, 6, 0, 6, 0.00,60.00,Saturday
2232,47.9071070567777
2233,21.5902742752034
5265,8125.042761609343
2,6,10, 6, 0, 7, 0.00,60.00,Saturday
2232,294.4414435725416
2233,134.57945186203129
5265,8090.025037488941
2,6,10, 6, 0, 8, 0.00,60.00,Saturday
2232,426.9765274744404
2233,267.87070335145139
5265,8086.386202760589
2,6,10, 6, 0, 9, 0.00,60.00,Saturday
2232,648.3324755425946
2233,410.0653579540929
5265,42058.63928884817
2,6,10, 6, 0,10, 0.00,60.00,Saturday
2232,686.2999839628104
2233,442.530648853095
5265,62932.418488514806
2,6,10, 6, 0,11, 0.00,60.00,Saturday
2232,617.4773935434423
2233,407.79569080293387
5265,77404.97701548827
2,6,10, 6, 0,12, 0.00,60.00,Saturday
2232,569.6054382236547
2233,381.02236445653099
5265,71536.0372369414
2,6,10, 6, 0,13, 0.00,60.00,Saturday
2232,537.5039762360421
2233,355.6322916744353
5265,60062.070373200004
2,6,10, 6, 0,14, 0.00,60.00,Saturday
2232,499.34747488615218
2233,322.336102889576
5265,52687.48998156621
2,6,10, 6, 0,15, 0.00,60.00,Saturday
2232,435.35158746460339
2233,275.0050739623604
5265,52984.187891632704
2,6,10, 6, 0,16, 0.00,60.00,Saturday
2232,318.0175223455496
2233,198.9248017185047
5265,47828.87974616556
2,6,10, 6, 0,17, 0.00,60.00,Saturday
2232,159.3639789431061
2233,98.62943530017276
5265,39151.455718142315
2,6,10, 6, 0,18, 0.00,60.00,Saturday
2232,16.297055635881397
2233,9.985007782546847
5265,35235.72845978663
2,6,10, 6, 0,19, 0.00,60.00,Saturday
2232,0.0
2233,0.0
5265,28441.657712200835
2,6,10, 6, 0,20, 0.00,60.00,Saturday
2232,0.0
2233,0.0
5265,11605.641480478407
2,6,10, 6, 0,21, 0.00,60.00,Saturday
2232,0.0
2233,0.0
5265,11478.671047145292
2,6,10, 6, 0,22, 0.00,60.00,Saturday
2232,0.0
2233,0.0
5265,8658.961778557297
2,6,10, 6, 0,23, 0.00,60.00,Saturday
2232,0.0
2233,0.0
5265,8334.406959672671
2,6,10, 6, 0,24, 0.00,60.00,Saturday
2232,0.0
2233,0.0
5265,8165.173672587091
2,7,10, 7, 0, 1, 0.00,60.00,Sunday
2232,0.0
2233,0.0
5265,8112.772636016136
2,7,10, 7, 0, 2, 0.00,60.00,Sunday
2232,0.0
2233,0.0
5265,8091.682416000374
2,7,10, 7, 0, 3, 0.00,60.00,Sunday
2232,0.0
2233,0.0
5265,8063.982757300689
2,7,10, 7, 0, 4, 0.00,60.00,Sunday
2232,0.0
2233,0.0
5265,8020.335031423824
2,7,10, 7, 0, 5, 0.00,60.00,Sunday
2232,0.0
2233,0.0
5265,7973.107022768568
2,7,10, 7, 0, 6, 0.00,60.00,Sunday
2232,50.74897947974561
2233,22.22008486911687
5265,7953.679509726105
2,7,10, 7, 0, 7, 0.00,60.00,Sunday
2232,320.1315317388323
2233,143.26519626747263
5265,7998.8555598905805
2,7,10, 7, 0, 8, 0.00,60.00,Sunday
2232,467.71539607289329
2233,293.9782931734731
5265,8087.067408108924
2,7,10, 7, 0, 9, 0.00,60.00,Sunday
2232,616.3217863838775
2233,389.8079609312904
5265,8195.043180531668
2,7,10, 7, 0,10, 0.00,60.00,Sunday
2232,629.8931540387916
2233,406.09034171327405
5265,8298.517559930124
2,7,10, 7, 0,11, 0.00,60.00,Sunday
2232,574.849631377146
2233,378.91927635625299
5265,8361.44565579733
2,7,10, 7, 0,12, 0.00,60.00,Sunday
2232,519.5341018513342
2233,345.911487799526
5265,8363.0916942529
2,7,10, 7, 0,13, 0.00,60.00,Sunday
2232,492.3112036093462
2233,324.98972020288786
5265,8304.506965285342
2,7,10, 7, 0,14, 0.00,60.00,Sunday
2232,457.43316310764507
2233,295.3407948699127
5265,8242.368082581888
2,7,10, 7, 0,15, 0.00,60.00,Sunday
2232,414.6651843256716
2233,262.2177324407834
5265,8227.590721096263
2,7,10, 7, 0,16, 0.00,60.00,Sunday
2232,306.6730921360798
2233,192.19863589882923
5265,8282.874299464771
2,7,10, 7, 0,17, 0.00,60.00,Sunday
2232,153.7902358853842
2233,95.5072754879608
5265,8346.15362769769
2,7,10, 7, 0,18, 0.00,60.00,Sunday
2232,15.712725074339503
2233,9.647438939649389
5265,8381.194342424771
2,7,10, 7, 0,19, 0.00,60.00,Sunday
2232,0.0
2233,0.0
5265,8346.99225221711
2,7,10, 7, 0,20, 0.00,60.00,Sunday
2232,0.0
2233,0.0
5265,8292.675426814672
2,7,10, 7, 0,21, 0.00,60.00,Sunday
2232,0.0
2233,0.0
5265,8241.201722862339
2,7,10, 7, 0,22, 0.00,60.00,Sunday
2232,0.0
2233,0.0
5265,8182.7270854134185
2,7,10, 7, 0,23, 0.00,60.00,Sunday
2232,0.0
2233,0.0
5265,8116.935100490799
2,7,10, 7, 0,24, 0.00,60.00,Sunday
2232,0.0
2233,0.0
5265,8073.460083694924
2,8,10, 8, 0, 1, 0.00,60.00,Monday
2232,0.0
2233,0.0
5265,7700.771571592064
2,8,10, 8, 0, 2, 0.00,60.00,Monday
2232,0.0
2233,0.0
5265,7745.2120279901255
2,8,10, 8, 0, 3, 0.00,60.00,Monday
2232,0.0
2233,0.0
5265,7692.45577994639
2,8,10, 8, 0, 4, 0.00,60.00,Monday
2232,0.0
2233,0.0
5265,7618.318361693061
2,8,10, 8, 0, 5, 0.00,60.00,Monday
2232,0.0
2233,0.0
5265,7550.809123135042
2,8,10, 8, 0, 6, 0.00,60.00,Monday
2232,55.74011237430209
2233,23.765333976150634
5265,7497.418424476993
2,8,10, 8, 0, 7, 0.00,60.00,Monday
2232,336.27330507919427
2233,146.04218294062307
5265,7473.771178989881
2,8,10, 8, 0, 8, 0.00,60.00,Monday
2232,436.52036850019428
2233,274.2424771826434
5265,29277.84489993137
2,8,10, 8, 0, 9, 0.00,60.00,Monday
2232,603.4506407445928
2233,381.75459046554826
5265,60368.1993224339
2,8,10, 8, 0,10, 0.00,60.00,Monday
2232,633.0675391225817
2233,408.15676330821528
5265,88311.49903127004
2,8,10, 8, 0,11, 0.00,60.00,Monday
2232,586.4421158802523
2233,386.7920607341496
5265,90520.99822065437
2,8,10, 8, 0,12, 0.00,60.00,Monday
2232,523.878283701811
2233,348.9018466829103
5265,129792.12710571669
2,8,10, 8, 0,13, 0.00,60.00,Monday
2232,470.78656973315449
2233,310.7912800579148
5265,132443.53446067879
2,8,10, 8, 0,14, 0.00,60.00,Monday
2232,399.74976052223379
2233,259.15357378936718
5265,165532.98591288634
2,8,10, 8, 0,15, 0.00,60.00,Monday
2232,324.2563383396948
2233,206.56389348762006
5265,174822.41050804684
2,8,10, 8, 0,16, 0.00,60.00,Monday
2232,226.06509570939978
2233,142.9438528326214
5265,156185.77010739383
2,8,10, 8, 0,17, 0.00,60.00,Monday
2232,108.88150332852483
2233,69.3633243607426
5265,135130.91527428138
2,8,10, 8, 0,18, 0.00,60.00,Monday
2232,11.2418649375683
2233,7.119163044371728
5265,52373.42386057368
2,8,10, 8, 0,19, 0.00,60.00,Monday
2232,0.0
2233,0.0
5265,25742.620692718116
2,8,10, 8, 0,20, 0.00,60.00,Monday
2232,0.0
2233,0.0
5265,10856.941107659915
2,8,10, 8, 0,21, 0.00,60.00,Monday
2232,0.0
2233,0.0
5265,8428.072593938568
2,8,10, 8, 0,22, 0.00,60.00,Monday
2232,0.0
2233,0.0
5265,7979.515682895842
2,8,10, 8, 0,23, 0.00,60.00,Monday
2232,0.0
2233,0.0
5265,7943.407181090675
2,8,10, 8, 0,24, 0.00,60.00,Monday
2232,0.0
2233,0.0
5265,7915.20958800906
2,9,10, 9, 0, 1, 0.00,60.00,Tuesday
2232,0.0
2233,0.0
5265,7120.5915495956
2,9,10, 9, 0, 2, 0.00,60.00,Tuesday
2232,0.0
2233,0.0
5265,7209.060658572204
2,9,10, 9, 0, 3, 0.00,60.00,Tuesday
2232,0.0
2233,0.0
5265,7156.0524311713125
2,9,10, 9, 0, 4, 0.00,60.00,Tuesday
2232,0.0
2233,0.0
5265,7082.27549654003
2,9,10, 9, 0, 5, 0.00,60.00,Tuesday
2232,0.0
2233,0.0
5265,7004.165349128461
2,9,10, 9, 0, 6, 0.00,60.00,Tuesday
2232,107.60523090336369
2233,41.71457343013328
5265,7131.557591274628
2,9,10, 9, 0, 7, 0.00,60.00,Tuesday
2232,731.743176127709
2233,268.83540178872337
5265,7521.2229145925885
2,9,10, 9, 0, 8, 0.00,60.00,Tuesday
2232,753.3674955791249
2233,459.9807276937947
5265,20824.87459793616
2,9,10, 9, 0, 9, 0.00,60.00,Tuesday
2232,882.1981858736366
2233,547.9803213608872
5265,73756.13269972452
2,9,10, 9, 0,10, 0.00,60.00,Tuesday
2232,822.6792005622156
2233,523.6292188896394
5265,105930.40578041096
2,9,10, 9, 0,11, 0.00,60.00,Tuesday
2232,672.5111314747397
2233,441.46397303330249
5265,114656.41314901097
2,9,10, 9, 0,12, 0.00,60.00,Tuesday
2232,571.2723160624645
2233,382.6042707476681
5265,152615.40390270897
2,9,10, 9, 0,13, 0.00,60.00,Tuesday
2232,564.7854871596362
2233,373.2117580954767
5265,144445.8509896216
2,9,10, 9, 0,14, 0.00,60.00,Tuesday
2232,568.266181879664
2233,363.83285983732329
5265,168170.7957751843
2,9,10, 9, 0,15, 0.00,60.00,Tuesday
2232,477.79511473535339
2233,297.3653601751136
5265,147194.30467866807
2,9,10, 9, 0,16, 0.00,60.00,Tuesday
2232,320.8098866772969
2233,199.71343653374366
5265,149761.6536268493
2,9,10, 9, 0,17, 0.00,60.00,Tuesday
2232,133.02244851782928
2233,83.80385927978891
5265,125507.83279368289
2,9,10, 9, 0,18, 0.00,60.00,Tuesday
2232,12.560976707007159
2233,7.8699459461324159
5265,111275.59807797359
2,9,10, 9, 0,19, 0.00,60.00,Tuesday
2232,0.0
2233,0.0
5265,66395.64673134801
2,9,10, 9, 0,20, 0.00,60.00,Tuesday
2232,0.0
2233,0.0
5265,32350.15317562237
2,9,10, 9, 0,21, 0.00,60.00,Tuesday
2232,0.0
2233,0.0
5265,8656.830151107755
2,9,10, 9, 0,22, 0.00,60.00,Tuesday
2232,0.0
2233,0.0
5265,8394.976009909158
2,9,10, 9, 0,23, 0.00,60.00,Tuesday
2232,0.0
2233,0.0
5265,8304.569351438606
2,9,10, 9, 0,24, 0.00,60.00,Tuesday
2232,0.0
2233,0.0
5265,8258.633443928307
2,10,10,10, 0, 1, 0.00,60.00,Wednesday
2232,0.0
2233,0.0
5265,8229.035587689104
2,10,10,10, 0, 2, 0.00,60.00,Wednesday
2232,0.0
2233,0.0
5265,8203.793163465934
2,10,10,10, 0, 3, 0.00,60.00,Wednesday
2232,0.0
2233,0.0
5265,8174.521310340281
2,10,10,10, 0, 4, 0.00,60.00,Wednesday
2232,0.0
2233,0.0
5265,8125.456259642415
2,10,10,10, 0, 5, 0.00,60.00,Wednesday
2232,0.0
2233,0.0
5265,8006.01816211523
2,10,10,10, 0, 6, 0.00,60.00,Wednesday
2232,57.416755438901819
2233,24.55058785623338
5265,8027.041098091223
2,10,10,10, 0, 7, 0.00,60.00,Wednesday
2232,340.8771822412399
2233,148.1790729417347
5265,8195.323882729324
2,10,10,10, 0, 8, 0.00,60.00,Wednesday
2232,428.1111856301247
2233,268.5109076233743
5265,25401.093808891106
2,10,10,10, 0, 9, 0.00,60.00,Wednesday
2232,647.9230323323022
2233,409.6774473840003
5265,81059.40467789503
2,10,10,10, 0,10, 0.00,60.00,Wednesday
2232,681.8509937621209
2233,439.60582915252777
5265,113668.28831425817
2,10,10,10, 0,11, 0.00,60.00,Wednesday
2232,606.3377642978963
2233,400.6241683682154
5265,135718.55638765024
2,10,10,10, 0,12, 0.00,60.00,Wednesday
2232,491.98968955539206
2233,330.83178080446569
5265,171932.80738964678
2,10,10,10, 0,13, 0.00,60.00,Wednesday
2232,529.67403766787
2233,349.7924367175256
5265,172176.8923566023
2,10,10,10, 0,14, 0.00,60.00,Wednesday
2232,557.0680273159616
2233,356.1105096539616
5265,172376.13604443617
2,10,10,10, 0,15, 0.00,60.00,Wednesday
2232,521.0702119920085
2233,324.1296746543057
5265,178799.15024260965
2,10,10,10, 0,16, 0.00,60.00,Wednesday
2232,396.469009132508
2233,242.89457667985369
5265,145204.01779587699
2,10,10,10, 0,17, 0.00,60.00,Wednesday
2232,204.57377912043715
2233,124.54125832089021
5265,83762.77910763545
2,10,10,10, 0,18, 0.00,60.00,Wednesday
2232,21.585469285109814
2233,12.962196994846268
5265,52929.779003129224
2,10,10,10, 0,19, 0.00,60.00,Wednesday
2232,0.0
2233,0.0
5265,23338.911972433027
2,10,10,10, 0,20, 0.00,60.00,Wednesday
2232,0.0
2233,0.0
5265,9365.682073321525
2,10,10,10, 0,21, 0.00,60.00,Wednesday
2232,0.0
2233,0.0
5265,8908.760575751769
2,10,10,10, 0,22, 0.00,60.00,Wednesday
2232,0.0
2233,0.0
5265,8464.123618059764
2,10,10,10, 0,23, 0.00,60.00,Wednesday
2232,0.0
2233,0.0
5265,8432.466512968485
2,10,10,10, 0,24, 0.00,60.00,Wednesday
2232,0.0
2233,0.0
5265,8395.131578654298
2,11,10,11, 0, 1, 0.00,60.00,Thursday
2232,0.0
2233,0.0
5265,8344.516751920219
2,11,10,11, 0, 2, 0.00,60.00,Thursday
2232,0.0
2233,0.0
5265,8283.973074893398
2,11,10,11, 0, 3, 0.00,60.00,Thursday
2232,0.0
2233,0.0
5265,8244.031929203144
2,11,10,11, 0, 4, 0.00,60.00,Thursday
2232,0.0
2233,0.0
5265,8217.444576781325
2,11,10,11, 0, 5, 0.00,60.00,Thursday
2232,0.0
2233,0.0
5265,8191.053849850247
2,11,10,11, 0, 6, 0.00,60.00,Thursday
2232,67.03357123013156
2233,27.529752955938773
5265,8212.638669889111
2,11,10,11, 0, 7, 0.00,60.00,Thursday
2232,405.89337716318797
2233,170.04302293355912
5265,8318.639162268935
2,11,10,11, 0, 8, 0.00,60.00,Thursday
2232,486.780930048803
2233,305.91572339133497
5265,23844.941872967025
2,11,10,11, 0, 9, 0.00,60.00,Thursday
2232,622.4339395548947
2233,393.52986731058749
5265,114448.10334656855
2,11,10,11, 0,10, 0.00,60.00,Thursday
2232,633.5446618288603
2233,408.355690679106
5265,148920.25597647075
2,11,10,11, 0,11, 0.00,60.00,Thursday
2232,588.2463511045326
2233,387.85511537035498
5265,167482.7937966199
2,11,10,11, 0,12, 0.00,60.00,Thursday
2232,555.2203049886244
2233,370.56175991009226
5265,169462.73784741466
2,11,10,11, 0,13, 0.00,60.00,Thursday
2232,535.2245645148804
2233,354.21284601591568
5265,172214.68894950144
2,11,10,11, 0,14, 0.00,60.00,Thursday
2232,508.7514716498825
2233,328.06527828130018
5265,184391.56150986497
2,11,10,11, 0,15, 0.00,60.00,Thursday
2232,444.4904564259538
2233,280.70414631173636
5265,180401.53275720255
2,11,10,11, 0,16, 0.00,60.00,Thursday
2232,314.5291130652933
2233,196.31244166490687
5265,182044.1450029692
2,11,10,11, 0,17, 0.00,60.00,Thursday
2232,149.99624912025679
2233,92.87338904051849
5265,168454.46572894808
2,11,10,11, 0,18, 0.00,60.00,Thursday
2232,15.273289744288269
2233,9.367916056990597
5265,88505.85203977418
2,11,10,11, 0,19, 0.00,60.00,Thursday
2232,0.0
2233,0.0
5265,63660.93665239619
2,11,10,11, 0,20, 0.00,60.00,Thursday
2232,0.0
2233,0.0
5265,45720.00231697888
2,11,10,11, 0,21, 0.00,60.00,Thursday
2232,0.0
2233,0.0
5265,8469.398074218532
2,11,10,11, 0,22, 0.00,60.00,Thursday
2232,0.0
2233,0.0
5265,8423.894726082908
2,11,10,11, 0,23, 0.00,60.00,Thursday
2232,0.0
2233,0.0
5265,8382.4263712918
2,11,10,11, 0,24, 0.00,60.00,Thursday
2232,0.0
2233,0.0
5265,8335.936121752626
2,12,10,12, 0, 1, 0.00,60.00,Friday
2232,0.0
2233,0.0
5265,8264.511717651383
2,12,10,12, 0, 2, 0.00,60.00,Friday
2232,0.0
2233,0.0
5265,8186.135222060075
2,12,10,12, 0, 3, 0.00,60.00,Friday
2232,0.0
2233,0.0
5265,8152.346726304557
2,12,10,12, 0, 4, 0.00,60.00,Friday
2232,0.0
2233,0.0
5265,8188.770379961229
2,12,10,12, 0, 5, 0.00,60.00,Friday
2232,0.0
2233,0.0
5265,8226.176591605361
2,12,10,12, 0, 6, 0.00,60.00,Friday
2232,62.8244696481238
2233,26.202360936461419
5265,8260.891523403945
2,12,10,12, 0, 7, 0.00,60.00,Friday
2232,392.8696585037192
2233,166.33942903114756
5265,8331.120137556709
2,12,10,12, 0, 8, 0.00,60.00,Friday
2232,497.577254980576
2233,312.9997603051736
5265,29224.685340325046
2,12,10,12, 0, 9, 0.00,60.00,Friday
2232,641.672516146684
2233,405.6862456556798
5265,92036.87287683533
2,12,10,12, 0,10, 0.00,60.00,Friday
2232,650.3480892560218
2233,419.1341327539964
5265,150659.9590590146
2,12,10,12, 0,11, 0.00,60.00,Friday
2232,594.0008016112663
2233,391.79746695698119
5265,149064.83924245466
2,12,10,12, 0,12, 0.00,60.00,Friday
2232,545.6619993403382
2233,363.92446047384376
5265,151911.01684419963
2,12,10,12, 0,13, 0.00,60.00,Friday
2232,515.5796306878475
2233,340.66398119614407
5265,161246.28561322523
2,12,10,12, 0,14, 0.00,60.00,Friday
2232,485.1412054192069
2233,313.1875743991615
5265,168624.99140850086
2,12,10,12, 0,15, 0.00,60.00,Friday
2232,422.06581739035689
2233,266.6938426491592
5265,148984.69100767835
2,12,10,12, 0,16, 0.00,60.00,Friday
2232,304.40142556404569
2233,190.6203545457573
5265,131967.6763847257
2,12,10,12, 0,17, 0.00,60.00,Friday
2232,142.20681348569529
2233,88.55940057316058
5265,122254.06469989226
2,12,10,12, 0,18, 0.00,60.00,Friday
2232,14.083007704496874
2233,8.675439184802397
5265,56022.65632710729
2,12,10,12, 0,19, 0.00,60.00,Friday
2232,0.0
2233,0.0
5265,29689.97272809756
2,12,10,12, 0,20, 0.00,60.00,Friday
2232,0.0
2233,0.0
5265,18675.157824689173
2,12,10,12, 0,21, 0.00,60.00,Friday
2232,0.0
2233,0.0
5265,13467.812602408218
2,12,10,12, 0,22, 0.00,60.00,Friday
2232,0.0
2233,0.0
5265,8283.892801662207
2,12,10,12, 0,23, 0.00,60.00,Friday
2232,0.0
2233,0.0
5265,8186.292397688251
2,12,10,12, 0,24, 0.00,60.00,Friday
2232,0.0
2233,0.0
5265,8118.627805074569
2,13,10,13, 0, 1, 0.00,60.00,Saturday
2232,0.0
2233,0.0
5265,8108.414351134211
2,13,10,13, 0, 2, 0.00,60.00,Saturday
2232,0.0
2233,0.0
5265,8111.490549122773
2,13,10,13, 0, 3, 0.00,60.00,Saturday
2232,0.0
2233,0.0
5265,8114.530081733615
2,13,10,13, 0, 4, 0.00,60.00,Saturday
2232,0.0
2233,0.0
5265,8108.593200076921
2,13,10,13, 0, 5, 0.00,60.00,Saturday
2232,0.0
2233,0.0
5265,8102.801054807721
2,13,10,13, 0, 6, 0.00,60.00,Saturday
2232,67.16317730979167
2233,27.50154010576487
5265,8132.4947235813825
2,13,10,13, 0, 7, 0.00,60.00,Saturday
2232,405.89294382236519
2233,169.65904522067005
5265,8241.252406074957
2,13,10,13, 0, 8, 0.00,60.00,Saturday
2232,487.2306037741677
2233,306.26751352922869
5265,8386.178892149743
2,13,10,13, 0, 9, 0.00,60.00,Saturday
2232,639.2513044036469
2233,404.14823544304047
5265,58373.32596806306
2,13,10,13, 0,10, 0.00,60.00,Saturday
2232,655.1726863950227
2233,422.2368961244637
5265,82976.19788644194
2,13,10,13, 0,11, 0.00,60.00,Saturday
2232,598.3548227246132
2233,394.7555470284486
5265,93944.89571905507
2,13,10,13, 0,12, 0.00,60.00,Saturday
2232,551.9904895159498
2233,368.5336577887659
5265,84461.18877005419
2,13,10,13, 0,13, 0.00,60.00,Saturday
2232,527.1328339471787
2233,348.67607341497338
5265,64054.98782280532
2,13,10,13, 0,14, 0.00,60.00,Saturday
2232,502.88215966138429
2233,324.71818372897539
5265,57461.95577778094
2,13,10,13, 0,15, 0.00,60.00,Saturday
2232,436.43363467809578
2233,275.6353708103264
5265,57597.390666200845
2,13,10,13, 0,16, 0.00,60.00,Saturday
2232,313.02883585888756
2233,195.14792506254745
5265,51791.22756704006
2,13,10,13, 0,17, 0.00,60.00,Saturday
2232,145.73676938176377
2233,90.3515455667385
5265,42198.67781425165
2,13,10,13, 0,18, 0.00,60.00,Saturday
2232,14.450050285899489
2233,8.865892549418718
5265,36060.23411647522
2,13,10,13, 0,19, 0.00,60.00,Saturday
2232,0.0
2233,0.0
5265,28645.982240586793
2,13,10,13, 0,20, 0.00,60.00,Saturday
2232,0.0
2233,0.0
5265,12673.554153552186
2,13,10,13, 0,21, 0.00,60.00,Saturday
2232,0.0
2233,0.0
5265,12506.713688496066
2,13,10,13, 0,22, 0.00,60.00,Saturday
2232,0.0
2233,0.0
5265,8685.216597772394
2,13,10,13, 0,23, 0.00,60.00,Saturday
2232,0.0
2233,0.0
5265,8440.739820521716
2,13,10,13, 0,24, 0.00,60.00,Saturday
2232,0.0
2233,0.0
5265,8353.710354973944