Program Version,EnergyPlus, Version 8.7.0-78a111df4a, YMD=2019.11.22 13:22
1,5,Environment Title[],Latitude[deg],Longitude[deg],Time Zone[],Elevation[m]
2,6,Day of Simulation[],Month[],Day of Month[],DST Indicator[1=yes 0=no],Hour[],StartMinute[],EndMinute[],DayType
3,3,Cumulative Day of Simulation[],Month[],Day of Month[],DST Indicator[1=yes 0=no],DayType  ! When Daily Report Variables Requested
4,2,Cumulative Days of Simulation[],Month[]  ! When Monthly Report Variables Requested
5,1,Cumulative Days of Simulation[] ! When Run Period Report Variables Requested
2232,1,AF305DAYLIGHINGCONTROL,Daylighting Reference Point 1 Illuminance [lux] !Hourly
2233,1,AF305DAYLIGHINGCONTROL,Daylighting Reference Point 2 Illuminance [lux] !Hourly
5265,1,Whole Building,Facility Total Electric Demand Power [W] !Hourly
End of Data Dictionary
1,RUNPERIOD,  10.30, 123.97,   8.00,  24.00
2,1,10, 1, 0, 1, 0.00,60.00,Monday
2232,0.0
2233,0.0
5265,7963.017272001282
2,1,10, 1, 0, 2, 0.00,60.00,Monday
2232,0.0
2233,0.0
5265,7877.944968411619
2,1,10, 1, 0, 3, 0.00,60.00,Monday
2232,0.0
2233,0.0
5265,7740.801417253136
2,1,10, 1, 0, 4, 0.00,60.00,Monday
2232,0.0
2233,0.0
5265,7672.267153196008
2,1,10, 1, 0, 5, 0.00,60.00,Monday
2232,0.0
2233,0.0
5265,7608.173297778648
2,1,10, 1, 0, 6, 0.00,60.00,Monday
2232,53.436956838569738
2233,19.07835954641283
5265,7667.6595646182
2,1,10, 1, 0, 7, 0.00,60.00,Monday
2232,364.06075419156977
2233,114.64888365942318
5265,7805.949225552012
2,1,10, 1, 0, 8, 0.00,60.00,Monday
2232,292.86806545475448
2233,175.12244006436277
5265,29706.342257138924
2,1,10, 1, 0, 9, 0.00,60.00,Monday
2232,328.6202787402463
2233,202.04042859757355
5265,61874.24681707583
2,1,10, 1, 0,10, 0.00,60.00,Monday
2232,304.5011000683598
2233,192.59797155075084
5265,96309.80478936382
2,1,10, 1, 0,11, 0.00,60.00,Monday
2232,247.80516551454287
2233,161.83156216894708
5265,98030.95370563143
2,1,10, 1, 0,12, 0.00,60.00,Monday
2232,194.25282920617108
2233,129.71465706139808
5265,141694.39927415169
2,1,10, 1, 0,13, 0.00,60.00,Monday
2232,191.66406726888602
2233,126.29113535843203
5265,145111.92594510859
2,1,10, 1, 0,14, 0.00,60.00,Monday
2232,184.84702047483703
2233,118.67718242594263
5265,170382.44821892796
2,1,10, 1, 0,15, 0.00,60.00,Monday
2232,145.38851695951079
2233,91.44113775092899
5265,177616.67556937345
2,1,10, 1, 0,16, 0.00,60.00,Monday
2232,95.27157331901396
2233,59.62878903197869
5265,158774.61786176565
2,1,10, 1, 0,17, 0.00,60.00,Monday
2232,38.790547138219597
2233,24.61387928784301
5265,137267.5701978904
2,1,10, 1, 0,18, 0.00,60.00,Monday
2232,4.401849765900205
2233,2.790026704675494
5265,52789.03110526993
2,1,10, 1, 0,19, 0.00,60.00,Monday
2232,0.0
2233,0.0
5265,26000.55588710556
2,1,10, 1, 0,20, 0.00,60.00,Monday
2232,0.0
2233,0.0
5265,10994.510620013816
2,1,10, 1, 0,21, 0.00,60.00,Monday
2232,0.0
2233,0.0
5265,8577.829551667242
2,1,10, 1, 0,22, 0.00,60.00,Monday
2232,0.0
2233,0.0
5265,8150.59601330973
2,1,10, 1, 0,23, 0.00,60.00,Monday
2232,0.0
2233,0.0
5265,8136.9201480324655
2,1,10, 1, 0,24, 0.00,60.00,Monday
2232,0.0
2233,0.0
5265,8119.429471205141
2,2,10, 2, 0, 1, 0.00,60.00,Tuesday
2232,0.0
2233,0.0
5265,7871.989536985077
2,2,10, 2, 0, 2, 0.00,60.00,Tuesday
2232,0.0
2233,0.0
5265,7779.889530858968
2,2,10, 2, 0, 3, 0.00,60.00,Tuesday
2232,0.0
2233,0.0
5265,7669.911163300875
2,2,10, 2, 0, 4, 0.00,60.00,Tuesday
2232,0.0
2233,0.0
5265,7553.677197479301
2,2,10, 2, 0, 5, 0.00,60.00,Tuesday
2232,0.0
2233,0.0
5265,7426.659325282028
2,2,10, 2, 0, 6, 0.00,60.00,Tuesday
2232,53.72418937581319
2233,19.45125962229328
5265,7538.586049274793
2,2,10, 2, 0, 7, 0.00,60.00,Tuesday
2232,369.73002900338346
2233,117.72957203349154
5265,7974.399664843698
2,2,10, 2, 0, 8, 0.00,60.00,Tuesday
2232,309.59971394840758
2233,182.57004036470458
5265,21087.60269106644
2,2,10, 2, 0, 9, 0.00,60.00,Tuesday
2232,339.4534339931757
2233,207.96871229864258
5265,82563.76969170138
2,2,10, 2, 0,10, 0.00,60.00,Tuesday
2232,310.5831006432862
2233,196.1718118042165
5265,115319.09781222265
2,2,10, 2, 0,11, 0.00,60.00,Tuesday
2232,240.99872967322538
2233,157.45624458481525
5265,121025.86507963711
2,2,10, 2, 0,12, 0.00,60.00,Tuesday
2232,200.17617798637063
2233,133.42820754045449
5265,151861.17695253765
2,2,10, 2, 0,13, 0.00,60.00,Tuesday
2232,192.92776920067483
2233,126.81572749622727
5265,136669.34117165485
2,2,10, 2, 0,14, 0.00,60.00,Tuesday
2232,163.73482748497472
2233,105.21196176203448
5265,154253.42383410608
2,2,10, 2, 0,15, 0.00,60.00,Tuesday
2232,136.15599281844264
2233,85.79747014132441
5265,130426.18854546525
2,2,10, 2, 0,16, 0.00,60.00,Tuesday
2232,95.57219001886436
2233,59.79275704056861
5265,135213.77790070963
2,2,10, 2, 0,17, 0.00,60.00,Tuesday
2232,48.49085680363661
2233,30.603146545230478
5265,111029.81926572095
2,2,10, 2, 0,18, 0.00,60.00,Tuesday
2232,5.471975799821894
2233,3.4321822866849778
5265,109442.80950072548
2,2,10, 2, 0,19, 0.00,60.00,Tuesday
2232,0.0
2233,0.0
5265,64257.629846997384
2,2,10, 2, 0,20, 0.00,60.00,Tuesday
2232,0.0
2233,0.0
5265,31289.917712876064
2,2,10, 2, 0,21, 0.00,60.00,Tuesday
2232,0.0
2233,0.0
5265,8631.990493445248
2,2,10, 2, 0,22, 0.00,60.00,Tuesday
2232,0.0
2233,0.0
5265,8386.292650869234
2,2,10, 2, 0,23, 0.00,60.00,Tuesday
2232,0.0
2233,0.0
5265,8335.223156199596
2,2,10, 2, 0,24, 0.00,60.00,Tuesday
2232,0.0
2233,0.0
5265,8295.605639180341
2,3,10, 3, 0, 1, 0.00,60.00,Wednesday
2232,0.0
2233,0.0
5265,8219.10815841262
2,3,10, 3, 0, 2, 0.00,60.00,Wednesday
2232,0.0
2233,0.0
5265,8122.282520187309
2,3,10, 3, 0, 3, 0.00,60.00,Wednesday
2232,0.0
2233,0.0
5265,7992.530025255056
2,3,10, 3, 0, 4, 0.00,60.00,Wednesday
2232,0.0
2233,0.0
5265,7930.962564568536
2,3,10, 3, 0, 5, 0.00,60.00,Wednesday
2232,0.0
2233,0.0
5265,7859.024199148723
2,3,10, 3, 0, 6, 0.00,60.00,Wednesday
2232,20.7364434467236
2233,8.790579487380818
5265,7900.038331615531
2,3,10, 3, 0, 7, 0.00,60.00,Wednesday
2232,128.5600464565672
2233,55.40051667902376
5265,8081.749050242851
2,3,10, 3, 0, 8, 0.00,60.00,Wednesday
2232,177.29563606700939
2233,110.77396991940185
5265,25186.879516356843
2,3,10, 3, 0, 9, 0.00,60.00,Wednesday
2232,249.18927859627699
2233,156.6874473946392
5265,75803.70104676538
2,3,10, 3, 0,10, 0.00,60.00,Wednesday
2232,254.4360318544981
2233,163.08934749680783
5265,112799.53827575244
2,3,10, 3, 0,11, 0.00,60.00,Wednesday
2232,227.97674692802196
2233,149.64908240429703
5265,133466.99861746157
2,3,10, 3, 0,12, 0.00,60.00,Wednesday
2232,200.11137022884075
2233,132.64034514973617
5265,164885.22982251386
2,3,10, 3, 0,13, 0.00,60.00,Wednesday
2232,174.78907825401408
2233,114.75782329220978
5265,155895.84815739288
2,3,10, 3, 0,14, 0.00,60.00,Wednesday
2232,152.3833585880168
2233,98.1674832336192
5265,152953.2584435114
2,3,10, 3, 0,15, 0.00,60.00,Wednesday
2232,140.71730256179499
2233,88.59520727214776
5265,158430.76462878925
2,3,10, 3, 0,16, 0.00,60.00,Wednesday
2232,112.7401953373472
2233,70.31578730828982
5265,123689.40236287425
2,3,10, 3, 0,17, 0.00,60.00,Wednesday
2232,59.24880457151971
2233,36.610826476973468
5265,68641.87615896687
2,3,10, 3, 0,18, 0.00,60.00,Wednesday
2232,7.106821331199089
2233,4.3294625831230368
5265,52189.27514080168
2,3,10, 3, 0,19, 0.00,60.00,Wednesday
2232,0.0
2233,0.0
5265,22665.831820035444
2,3,10, 3, 0,20, 0.00,60.00,Wednesday
2232,0.0
2233,0.0
5265,9043.168982406913
2,3,10, 3, 0,21, 0.00,60.00,Wednesday
2232,0.0
2233,0.0
5265,8520.475370207962
2,3,10, 3, 0,22, 0.00,60.00,Wednesday
2232,0.0
2233,0.0
5265,8100.672502758949
2,3,10, 3, 0,23, 0.00,60.00,Wednesday
2232,0.0
2233,0.0
5265,8126.978242122001
2,3,10, 3, 0,24, 0.00,60.00,Wednesday
2232,0.0
2233,0.0
5265,8124.365848511068
2,4,10, 4, 0, 1, 0.00,60.00,Thursday
2232,0.0
2233,0.0
5265,8060.245677732455
2,4,10, 4, 0, 2, 0.00,60.00,Thursday
2232,0.0
2233,0.0
5265,7985.0548774862555
2,4,10, 4, 0, 3, 0.00,60.00,Thursday
2232,0.0
2233,0.0
5265,7924.356628214905
2,4,10, 4, 0, 4, 0.00,60.00,Thursday
2232,0.0
2233,0.0
5265,7909.207559840378
2,4,10, 4, 0, 5, 0.00,60.00,Thursday
2232,0.0
2233,0.0
5265,7907.254894739054
2,4,10, 4, 0, 6, 0.00,60.00,Thursday
2232,28.24716462858527
2233,10.957061861857403
5265,7929.302935569056
2,4,10, 4, 0, 7, 0.00,60.00,Thursday
2232,178.60662944060187
2233,70.39968631955043
5265,8000.980985159746
2,4,10, 4, 0, 8, 0.00,60.00,Thursday
2232,212.80894591516299
2233,132.73360068129527
5265,22700.72155362889
2,4,10, 4, 0, 9, 0.00,60.00,Thursday
2232,257.96076981015957
2233,162.16742580745589
5265,96413.77052733943
2,4,10, 4, 0,10, 0.00,60.00,Thursday
2232,254.1805992539693
2233,162.97502272985549
5265,132216.6008294253
2,4,10, 4, 0,11, 0.00,60.00,Thursday
2232,226.95288916572916
2233,148.98882267270177
5265,157496.03587683265
2,4,10, 4, 0,12, 0.00,60.00,Thursday
2232,206.70305822331339
2233,137.22364438143473
5265,161824.1910705235
2,4,10, 4, 0,13, 0.00,60.00,Thursday
2232,195.54803804445943
2233,128.5392076387843
5265,164422.44411525236
2,4,10, 4, 0,14, 0.00,60.00,Thursday
2232,183.76259631021379
2233,117.92722251643447
5265,176311.94640655805
2,4,10, 4, 0,15, 0.00,60.00,Thursday
2232,166.46080731241094
2233,104.47883847964028
5265,165973.6492244501
2,4,10, 4, 0,16, 0.00,60.00,Thursday
2232,124.01829597947595
2233,76.62750560692146
5265,172266.27029975723
2,4,10, 4, 0,17, 0.00,60.00,Thursday
2232,63.45721481035702
2233,38.826247067402658
5265,160454.3946169028
2,4,10, 4, 0,18, 0.00,60.00,Thursday
2232,8.382059036069025
2233,5.072945273614077
5265,87298.28440074984
2,4,10, 4, 0,19, 0.00,60.00,Thursday
2232,0.0
2233,0.0
5265,62352.45226679617
2,4,10, 4, 0,20, 0.00,60.00,Thursday
2232,0.0
2233,0.0
5265,44481.81365281241
2,4,10, 4, 0,21, 0.00,60.00,Thursday
2232,0.0
2233,0.0
5265,8250.419480336404
2,4,10, 4, 0,22, 0.00,60.00,Thursday
2232,0.0
2233,0.0
5265,8238.360843048538
2,4,10, 4, 0,23, 0.00,60.00,Thursday
2232,0.0
2233,0.0
5265,8235.496406499775
2,4,10, 4, 0,24, 0.00,60.00,Thursday
2232,0.0
2233,0.0
5265,8191.882756048563
2,5,10, 5, 0, 1, 0.00,60.00,Friday
2232,0.0
2233,0.0
5265,8095.206772814917
2,5,10, 5, 0, 2, 0.00,60.00,Friday
2232,0.0
2233,0.0
5265,7996.323249992221
2,5,10, 5, 0, 3, 0.00,60.00,Friday
2232,0.0
2233,0.0
5265,7931.840545747746
2,5,10, 5, 0, 4, 0.00,60.00,Friday
2232,0.0
2233,0.0
5265,7915.329472777436
2,5,10, 5, 0, 5, 0.00,60.00,Friday
2232,0.0
2233,0.0
5265,7907.040288792581
2,5,10, 5, 0, 6, 0.00,60.00,Friday
2232,40.34551877101316
2233,15.284267344552598
5265,7922.972001138162
2,5,10, 5, 0, 7, 0.00,60.00,Friday
2232,262.99521822530309
2233,94.38605801560492
5265,7981.209672108217
2,5,10, 5, 0, 8, 0.00,60.00,Friday
2232,232.86355654798593
2233,144.6509824723915
5265,28014.380316179497
2,5,10, 5, 0, 9, 0.00,60.00,Friday
2232,267.9234692861107
2233,167.93712825724433
5265,70319.01216192164
2,5,10, 5, 0,10, 0.00,60.00,Friday
2232,250.73338023016587
2233,160.73556167391858
5265,137594.93103974139
2,5,10, 5, 0,11, 0.00,60.00,Friday
2232,223.03312186587599
2233,146.40503731825104
5265,136158.9478709906
2,5,10, 5, 0,12, 0.00,60.00,Friday
2232,196.73299448161678
2233,131.23225624623789
5265,142519.65220258226
2,5,10, 5, 0,13, 0.00,60.00,Friday
2232,196.49831045284666
2233,129.0486310254477
5265,156296.46167873266
2,5,10, 5, 0,14, 0.00,60.00,Friday
2232,211.20509797735114
2233,134.2952845616522
5265,166606.7512950498
2,5,10, 5, 0,15, 0.00,60.00,Friday
2232,193.87920366936047
2233,119.75941250096916
5265,145363.70663904245
2,5,10, 5, 0,16, 0.00,60.00,Friday
2232,130.4343991367497
2233,79.56617849912195
5265,126677.22159536423
2,5,10, 5, 0,17, 0.00,60.00,Friday
2232,62.73851048897368
2233,38.328676858198857
5265,117316.33943341281
2,5,10, 5, 0,18, 0.00,60.00,Friday
2232,6.899956937045722
2233,4.187865511077495
5265,55630.456451637205
2,5,10, 5, 0,19, 0.00,60.00,Friday
2232,0.0
2233,0.0
5265,29414.28550229617
2,5,10, 5, 0,20, 0.00,60.00,Friday
2232,0.0
2233,0.0
5265,18544.724003834835
2,5,10, 5, 0,21, 0.00,60.00,Friday
2232,0.0
2233,0.0
5265,13414.022135361987
2,5,10, 5, 0,22, 0.00,60.00,Friday
2232,0.0
2233,0.0
5265,8304.737795426134
2,5,10, 5, 0,23, 0.00,60.00,Friday
2232,0.0
2233,0.0
5265,8277.06456427606
2,5,10, 5, 0,24, 0.00,60.00,Friday
2232,0.0
2233,0.0
5265,8254.17180377928
2,6,10, 6, 0, 1, 0.00,60.00,Saturday
2232,0.0
2233,0.0
5265,8229.446580469854
2,6,10, 6, 0, 2, 0.00,60.00,Saturday
2232,0.0
2233,0.0
5265,8214.045773782507
2,6,10, 6, 0, 3, 0.00,60.00,Saturday
2232,0.0
2233,0.0
5265,8188.439434952014
2,6,10, 6, 0, 4, 0.00,60.00,Saturday
2232,0.0
2233,0.0
5265,8167.347067399972
2,6,10, 6, 0, 5, 0.00,60.00,Saturday
2232,0.0
2233,0.0
5265,8150.21143241839
2,6,10, 6, 0, 6, 0.00,60.00,Saturday
2232,17.771343562570779
2233,7.930689065667051
5265,8125.042761609343
2,6,10, 6, 0, 7, 0.00,60.00,Saturday
2232,109.18872344898979
2233,49.411264267348638
5265,8090.025037488941
2,6,10, 6, 0, 8, 0.00,60.00,Saturday
2232,158.00478344649745
2233,98.54584261283714
5265,8086.386202760589
2,6,10, 6, 0, 9, 0.00,60.00,Saturday
2232,239.88958126767248
2233,150.84663842537905
5265,42058.63928884817
2,6,10, 6, 0,10, 0.00,60.00,Saturday
2232,253.8534001550015
2233,162.75280015739146
5265,62932.418488514806
2,6,10, 6, 0,11, 0.00,60.00,Saturday
2232,228.28263206317048
2233,149.92145168997585
5265,77404.97701548827
2,6,10, 6, 0,12, 0.00,60.00,Saturday
2232,210.53432893847967
2233,140.05625084808535
5265,71536.0372369414
2,6,10, 6, 0,13, 0.00,60.00,Saturday
2232,198.67625402662973
2233,130.70817293181163
5265,60062.070373200004
2,6,10, 6, 0,14, 0.00,60.00,Saturday
2232,184.61835760557606
2233,118.46916802164263
5265,52687.48998156621
2,6,10, 6, 0,15, 0.00,60.00,Saturday
2232,161.00157050342413
2233,101.08145026802937
5265,52984.187891632704
2,6,10, 6, 0,16, 0.00,60.00,Saturday
2232,117.63820166471955
2233,73.1339452489327
5265,47828.87974616556
2,6,10, 6, 0,17, 0.00,60.00,Saturday
2232,58.967404529857599
2233,36.27125740565004
5265,39151.455718142315
2,6,10, 6, 0,18, 0.00,60.00,Saturday
2232,6.032114662064269
2233,3.6733582921870906
5265,35235.72845978663
2,6,10, 6, 0,19, 0.00,60.00,Saturday
2232,0.0
2233,0.0
5265,28441.657712200835
2,6,10, 6, 0,20, 0.00,60.00,Saturday
2232,0.0
2233,0.0
5265,11605.641480478407
2,6,10, 6, 0,21, 0.00,60.00,Saturday
2232,0.0
2233,0.0
5265,11478.671047145292
2,6,10, 6, 0,22, 0.00,60.00,Saturday
2232,0.0
2233,0.0
5265,8658.961778557297
2,6,10, 6, 0,23, 0.00,60.00,Saturday
2232,0.0
2233,0.0
5265,8334.406959672671
2,6,10, 6, 0,24, 0.00,60.00,Saturday
2232,0.0
2233,0.0
5265,8165.173672587091
2,7,10, 7, 0, 1, 0.00,60.00,Sunday
2232,0.0
2233,0.0
5265,8112.772636016136
2,7,10, 7, 0, 2, 0.00,60.00,Sunday
2232,0.0
2233,0.0
5265,8091.682416000374
2,7,10, 7, 0, 3, 0.00,60.00,Sunday
2232,0.0
2233,0.0
5265,8063.982757300689
2,7,10, 7, 0, 4, 0.00,60.00,Sunday
2232,0.0
2233,0.0
5265,8020.335031423824
2,7,10, 7, 0, 5, 0.00,60.00,Sunday
2232,0.0
2233,0.0
5265,7973.107022768568
2,7,10, 7, 0, 6, 0.00,60.00,Sunday
2232,18.828465328987929
2233,8.160378535491347
5265,7953.679509726105
2,7,10, 7, 0, 7, 0.00,60.00,Sunday
2232,118.72655772719522
2233,52.589445835807399
5265,7998.8555598905805
2,7,10, 7, 0, 8, 0.00,60.00,Sunday
2232,173.06175468991425
2233,108.1353541423958
5265,8087.067408108924
2,7,10, 7, 0, 9, 0.00,60.00,Sunday
2232,228.05159471354873
2233,143.40057711735646
5265,8195.043180531668
2,7,10, 7, 0,10, 0.00,60.00,Sunday
2232,233.0045663029504
2233,149.36463948816476
5265,8298.517559930124
2,7,10, 7, 0,11, 0.00,60.00,Sunday
2232,212.56388820953894
2233,139.33872884614164
5265,8361.44565579733
2,7,10, 7, 0,12, 0.00,60.00,Sunday
2232,192.0690822978058
2233,127.18020805583983
5265,8363.0916942529
2,7,10, 7, 0,13, 0.00,60.00,Sunday
2232,182.00014420787375
2233,119.46821692481352
5265,8304.506965285342
2,7,10, 7, 0,14, 0.00,60.00,Sunday
2232,169.13438876707924
2233,108.55951585458043
5265,8242.368082581888
2,7,10, 7, 0,15, 0.00,60.00,Sunday
2232,153.35515906698843
2233,96.38637186298394
5265,8227.590721096263
2,7,10, 7, 0,16, 0.00,60.00,Sunday
2232,113.44208219513462
2233,70.66331577297223
5265,8282.874299464771
2,7,10, 7, 0,17, 0.00,60.00,Sunday
2232,56.904183200408137
2233,35.123949715805007
5265,8346.15362769769
2,7,10, 7, 0,18, 0.00,60.00,Sunday
2232,5.815625423117546
2233,3.5490635917925306
5265,8381.194342424771
2,7,10, 7, 0,19, 0.00,60.00,Sunday
2232,0.0
2233,0.0
5265,8346.99225221711
2,7,10, 7, 0,20, 0.00,60.00,Sunday
2232,0.0
2233,0.0
5265,8292.675426814672
2,7,10, 7, 0,21, 0.00,60.00,Sunday
2232,0.0
2233,0.0
5265,8241.201722862339
2,7,10, 7, 0,22, 0.00,60.00,Sunday
2232,0.0
2233,0.0
5265,8182.7270854134185
2,7,10, 7, 0,23, 0.00,60.00,Sunday
2232,0.0
2233,0.0
5265,8116.935100490799
2,7,10, 7, 0,24, 0.00,60.00,Sunday
2232,0.0
2233,0.0
5265,8073.460083694924
2,8,10, 8, 0, 1, 0.00,60.00,Monday
2232,0.0
2233,0.0
5265,7700.771571592064
2,8,10, 8, 0, 2, 0.00,60.00,Monday
2232,0.0
2233,0.0
5265,7745.2120279901255
2,8,10, 8, 0, 3, 0.00,60.00,Monday
2232,0.0
2233,0.0
5265,7692.45577994639
2,8,10, 8, 0, 4, 0.00,60.00,Monday
2232,0.0
2233,0.0
5265,7618.318361693061
2,8,10, 8, 0, 5, 0.00,60.00,Monday
2232,0.0
2233,0.0
5265,7550.809123135042
2,8,10, 8, 0, 6, 0.00,60.00,Monday
2232,20.68330683461622
2233,8.726480568246578
5265,7497.418424476993
2,8,10, 8, 0, 7, 0.00,60.00,Monday
2232,124.73425193763835
2233,53.59767400041337
5265,7473.771178989881
2,8,10, 8, 0, 8, 0.00,60.00,Monday
2232,161.52684328591332
2233,100.88253308717526
5265,29277.84489993137
2,8,10, 8, 0, 9, 0.00,60.00,Monday
2232,223.28932463641523
2233,140.43865529216289
5265,60368.1993224339
2,8,10, 8, 0,10, 0.00,60.00,Monday
2232,234.1764492835418
2233,150.12262808237134
5265,88311.49903127004
2,8,10, 8, 0,11, 0.00,60.00,Monday
2232,216.84236093829836
2233,142.22751589684689
5265,90520.99822065437
2,8,10, 8, 0,12, 0.00,60.00,Monday
2232,193.67371517573452
2233,128.27887886923677
5265,129792.12710571669
2,8,10, 8, 0,13, 0.00,60.00,Monday
2232,174.05646378806129
2233,114.26141365123134
5265,132443.53446067879
2,8,10, 8, 0,14, 0.00,60.00,Monday
2232,147.8217003391312
2233,95.27804662395822
5265,165532.98591288634
2,8,10, 8, 0,15, 0.00,60.00,Monday
2232,119.9297222750647
2233,75.9467565806573
5265,174822.41050804684
2,8,10, 8, 0,16, 0.00,60.00,Monday
2232,83.62863339047492
2233,52.56513753660315
5265,156185.77010739383
2,8,10, 8, 0,17, 0.00,60.00,Monday
2232,40.28332458495458
2233,25.514200558089674
5265,135130.91527428138
2,8,10, 8, 0,18, 0.00,60.00,Monday
2232,4.159769626887741
2233,2.6190021495757405
5265,52373.42386057368
2,8,10, 8, 0,19, 0.00,60.00,Monday
2232,0.0
2233,0.0
5265,25742.620692718116
2,8,10, 8, 0,20, 0.00,60.00,Monday
2232,0.0
2233,0.0
5265,10856.941107659915
2,8,10, 8, 0,21, 0.00,60.00,Monday
2232,0.0
2233,0.0
5265,8428.072593938568
2,8,10, 8, 0,22, 0.00,60.00,Monday
2232,0.0
2233,0.0
5265,7979.515682895842
2,8,10, 8, 0,23, 0.00,60.00,Monday
2232,0.0
2233,0.0
5265,7943.407181090675
2,8,10, 8, 0,24, 0.00,60.00,Monday
2232,0.0
2233,0.0
5265,7915.20958800906
2,9,10, 9, 0, 1, 0.00,60.00,Tuesday
2232,0.0
2233,0.0
5265,7120.5915495956
2,9,10, 9, 0, 2, 0.00,60.00,Tuesday
2232,0.0
2233,0.0
5265,7209.060658572204
2,9,10, 9, 0, 3, 0.00,60.00,Tuesday
2232,0.0
2233,0.0
5265,7156.0524311713125
2,9,10, 9, 0, 4, 0.00,60.00,Tuesday
2232,0.0
2233,0.0
5265,7082.27549654003
2,9,10, 9, 0, 5, 0.00,60.00,Tuesday
2232,0.0
2233,0.0
5265,7004.165349128461
2,9,10, 9, 0, 6, 0.00,60.00,Tuesday
2232,39.920696891257
2233,15.293099835430232
5265,7131.557591274628
2,9,10, 9, 0, 7, 0.00,60.00,Tuesday
2232,271.5676011576763
2233,98.47417209080179
5265,7521.2229145925885
2,9,10, 9, 0, 8, 0.00,60.00,Tuesday
2232,278.69277802986979
2233,169.06958024196394
5265,20824.87459793616
2,9,10, 9, 0, 9, 0.00,60.00,Tuesday
2232,326.4054932438043
2233,201.51702186125605
5265,73756.13269972452
2,9,10, 9, 0,10, 0.00,60.00,Tuesday
2232,304.29339688337196
2233,192.54290386430783
5265,105930.40578041096
2,9,10, 9, 0,11, 0.00,60.00,Tuesday
2232,248.60395117811508
2233,162.266132516698
5265,114656.41314901097
2,9,10, 9, 0,12, 0.00,60.00,Tuesday
2232,211.06805370873338
2233,140.5686461672485
5265,152615.40390270897
2,9,10, 9, 0,13, 0.00,60.00,Tuesday
2232,208.6886123384479
2233,137.1046056527015
5265,144445.8509896216
2,9,10, 9, 0,14, 0.00,60.00,Tuesday
2232,210.05420934865846
2233,133.66595603792104
5265,168170.7957751843
2,9,10, 9, 0,15, 0.00,60.00,Tuesday
2232,176.67410067900088
2233,109.25483365248174
5265,147194.30467866807
2,9,10, 9, 0,16, 0.00,60.00,Tuesday
2232,118.66901228447137
2233,73.4169016009565
5265,149761.6536268493
2,9,10, 9, 0,17, 0.00,60.00,Tuesday
2232,49.216461653402898
2233,30.82274071096201
5265,125507.83279368289
2,9,10, 9, 0,18, 0.00,60.00,Tuesday
2232,4.648244114292525
2233,2.8951305584958075
5265,111275.59807797359
2,9,10, 9, 0,19, 0.00,60.00,Tuesday
2232,0.0
2233,0.0
5265,66395.64673134801
2,9,10, 9, 0,20, 0.00,60.00,Tuesday
2232,0.0
2233,0.0
5265,32350.15317562237
2,9,10, 9, 0,21, 0.00,60.00,Tuesday
2232,0.0
2233,0.0
5265,8656.830151107755
2,9,10, 9, 0,22, 0.00,60.00,Tuesday
2232,0.0
2233,0.0
5265,8394.976009909158
2,9,10, 9, 0,23, 0.00,60.00,Tuesday
2232,0.0
2233,0.0
5265,8304.569351438606
2,9,10, 9, 0,24, 0.00,60.00,Tuesday
2232,0.0
2233,0.0
5265,8258.633443928307
2,10,10,10, 0, 1, 0.00,60.00,Wednesday
2232,0.0
2233,0.0
5265,8229.035587689104
2,10,10,10, 0, 2, 0.00,60.00,Wednesday
2232,0.0
2233,0.0
5265,8203.793163465934
2,10,10,10, 0, 3, 0.00,60.00,Wednesday
2232,0.0
2233,0.0
5265,8174.521310340281
2,10,10,10, 0, 4, 0.00,60.00,Wednesday
2232,0.0
2233,0.0
5265,8125.456259642415
2,10,10,10, 0, 5, 0.00,60.00,Wednesday
2232,0.0
2233,0.0
5265,8006.01816211523
2,10,10,10, 0, 6, 0.00,60.00,Wednesday
2232,21.30530928938531
2233,9.015246574411365
5265,8027.041098091223
2,10,10,10, 0, 7, 0.00,60.00,Wednesday
2232,126.44289895425216
2233,54.38405663827971
5265,8195.323882729324
2,10,10,10, 0, 8, 0.00,60.00,Wednesday
2232,158.42492400565335
2233,98.78123174087166
5265,25401.093808891106
2,10,10,10, 0, 9, 0.00,60.00,Wednesday
2232,239.740576221142
2233,150.70565110955656
5265,81059.40467789503
2,10,10,10, 0,10, 0.00,60.00,Wednesday
2232,252.2104096409469
2233,161.6792720877052
5265,113668.28831425817
2,10,10,10, 0,11, 0.00,60.00,Wednesday
2232,224.156990350004
2233,147.27928437207437
5265,135718.55638765024
2,10,10,10, 0,12, 0.00,60.00,Wednesday
2232,181.7495223824875
2233,121.52833945985361
5265,171932.80738964678
2,10,10,10, 0,13, 0.00,60.00,Wednesday
2232,195.69302298630817
2233,128.47782818047933
5265,172176.8923566023
2,10,10,10, 0,14, 0.00,60.00,Wednesday
2232,205.90946629927763
2233,130.8198984009936
5265,172376.13604443617
2,10,10,10, 0,15, 0.00,60.00,Wednesday
2232,192.68684455363849
2233,119.09862787545643
5265,178799.15024260965
2,10,10,10, 0,16, 0.00,60.00,Wednesday
2232,146.66889729334648
2233,89.28381228224778
5265,145204.01779587699
2,10,10,10, 0,17, 0.00,60.00,Wednesday
2232,75.71322979816394
2233,45.807287074819068
5265,83762.77910763545
2,10,10,10, 0,18, 0.00,60.00,Wednesday
2232,7.9922703978106279
2233,4.770049679699287
5265,52929.779003129224
2,10,10,10, 0,19, 0.00,60.00,Wednesday
2232,0.0
2233,0.0
5265,23338.911972433027
2,10,10,10, 0,20, 0.00,60.00,Wednesday
2232,0.0
2233,0.0
5265,9365.682073321525
2,10,10,10, 0,21, 0.00,60.00,Wednesday
2232,0.0
2233,0.0
5265,8908.760575751769
2,10,10,10, 0,22, 0.00,60.00,Wednesday
2232,0.0
2233,0.0
5265,8464.123618059764
2,10,10,10, 0,23, 0.00,60.00,Wednesday
2232,0.0
2233,0.0
5265,8432.466512968485
2,10,10,10, 0,24, 0.00,60.00,Wednesday
2232,0.0
2233,0.0
5265,8395.131578654298
2,11,10,11, 0, 1, 0.00,60.00,Thursday
2232,0.0
2233,0.0
5265,8344.516751920219
2,11,10,11, 0, 2, 0.00,60.00,Thursday
2232,0.0
2233,0.0
5265,8283.973074893398
2,11,10,11, 0, 3, 0.00,60.00,Thursday
2232,0.0
2233,0.0
5265,8244.031929203144
2,11,10,11, 0, 4, 0.00,60.00,Thursday
2232,0.0
2233,0.0
5265,8217.444576781325
2,11,10,11, 0, 5, 0.00,60.00,Thursday
2232,0.0
2233,0.0
5265,8191.053849850247
2,11,10,11, 0, 6, 0.00,60.00,Thursday
2232,24.878388687531908
2233,10.106203363873553
5265,8212.638669889111
2,11,10,11, 0, 7, 0.00,60.00,Thursday
2232,150.58539007684289
2233,62.38789269478364
5265,8318.639162268935
2,11,10,11, 0, 8, 0.00,60.00,Thursday
2232,180.11330754005568
2233,112.52327784899474
5265,23844.941872967025
2,11,10,11, 0, 9, 0.00,60.00,Thursday
2232,230.31520883830468
2233,144.7709465253332
5265,114448.10334656855
2,11,10,11, 0,10, 0.00,60.00,Thursday
2232,234.35674174310894
2233,150.19877822944776
5265,148920.25597647075
2,11,10,11, 0,11, 0.00,60.00,Thursday
2232,217.51287423087488
2233,142.62089048000056
5265,167482.7937966199
2,11,10,11, 0,12, 0.00,60.00,Thursday
2232,205.23670926184892
2233,136.22457758287897
5265,169462.73784741466
2,11,10,11, 0,13, 0.00,60.00,Thursday
2232,197.82958182750668
2233,130.18309191433779
5265,172214.68894950144
2,11,10,11, 0,14, 0.00,60.00,Thursday
2232,188.07189365326
2233,120.55131895152037
5265,184391.56150986497
2,11,10,11, 0,15, 0.00,60.00,Thursday
2232,164.3731010641583
2233,103.16813796297207
5265,180401.53275720255
2,11,10,11, 0,16, 0.00,60.00,Thursday
2232,116.34723469579302
2233,72.17074687227829
5265,182044.1450029692
2,11,10,11, 0,17, 0.00,60.00,Thursday
2232,55.50128840818099
2233,34.15476245885751
5265,168454.46572894808
2,11,10,11, 0,18, 0.00,60.00,Thursday
2232,5.6530858506642309
2233,3.446289409714888
5265,88505.85203977418
2,11,10,11, 0,19, 0.00,60.00,Thursday
2232,0.0
2233,0.0
5265,63660.93665239619
2,11,10,11, 0,20, 0.00,60.00,Thursday
2232,0.0
2233,0.0
5265,45720.00231697888
2,11,10,11, 0,21, 0.00,60.00,Thursday
2232,0.0
2233,0.0
5265,8469.398074218532
2,11,10,11, 0,22, 0.00,60.00,Thursday
2232,0.0
2233,0.0
5265,8423.894726082908
2,11,10,11, 0,23, 0.00,60.00,Thursday
2232,0.0
2233,0.0
5265,8382.4263712918
2,11,10,11, 0,24, 0.00,60.00,Thursday
2232,0.0
2233,0.0
5265,8335.936121752626
2,12,10,12, 0, 1, 0.00,60.00,Friday
2232,0.0
2233,0.0
5265,8264.511717651383
2,12,10,12, 0, 2, 0.00,60.00,Friday
2232,0.0
2233,0.0
5265,8186.135222060075
2,12,10,12, 0, 3, 0.00,60.00,Friday
2232,0.0
2233,0.0
5265,8152.346726304557
2,12,10,12, 0, 4, 0.00,60.00,Friday
2232,0.0
2233,0.0
5265,8188.770379961229
2,12,10,12, 0, 5, 0.00,60.00,Friday
2232,0.0
2233,0.0
5265,8226.176591605361
2,12,10,12, 0, 6, 0.00,60.00,Friday
2232,23.314820696147384
2233,9.620157494071007
5265,8260.891523403945
2,12,10,12, 0, 7, 0.00,60.00,Friday
2232,145.7443335218972
2233,61.03280780036727
5265,8331.120137556709
2,12,10,12, 0, 8, 0.00,60.00,Friday
2232,184.09969151607494
2233,115.12251014093038
5265,29224.685340325046
2,12,10,12, 0, 9, 0.00,60.00,Friday
2232,237.42921921575826
2233,149.23857402400999
5265,92036.87287683533
2,12,10,12, 0,10, 0.00,60.00,Friday
2232,240.56757379863999
2233,154.15839608553109
5265,150659.9590590146
2,12,10,12, 0,11, 0.00,60.00,Friday
2232,219.63466921153847
2233,144.06582762774947
5265,149064.83924245466
2,12,10,12, 0,12, 0.00,60.00,Friday
2232,201.71153751740779
2233,133.7906386800044
5265,151911.01684419963
2,12,10,12, 0,13, 0.00,60.00,Friday
2232,190.5897850608674
2233,125.22037995534798
5265,161246.28561322523
2,12,10,12, 0,14, 0.00,60.00,Friday
2232,179.36924913432828
2233,115.10989451901827
5265,168624.99140850086
2,12,10,12, 0,15, 0.00,60.00,Friday
2232,156.0890195303715
2233,98.027723833792
5265,148984.69100767835
2,12,10,12, 0,16, 0.00,60.00,Friday
2232,112.60137597339902
2233,70.08187888754022
5265,131967.6763847257
2,12,10,12, 0,17, 0.00,60.00,Friday
2232,52.61769838449509
2233,32.5695757415778
5265,122254.06469989226
2,12,10,12, 0,18, 0.00,60.00,Friday
2232,5.2122368555997868
2233,3.1914378847160109
5265,56022.65632710729
2,12,10,12, 0,19, 0.00,60.00,Friday
2232,0.0
2233,0.0
5265,29689.97272809756
2,12,10,12, 0,20, 0.00,60.00,Friday
2232,0.0
2233,0.0
5265,18675.157824689173
2,12,10,12, 0,21, 0.00,60.00,Friday
2232,0.0
2233,0.0
5265,13467.812602408218
2,12,10,12, 0,22, 0.00,60.00,Friday
2232,0.0
2233,0.0
5265,8283.892801662207
2,12,10,12, 0,23, 0.00,60.00,Friday
2232,0.0
2233,0.0
5265,8186.292397688251
2,12,10,12, 0,24, 0.00,60.00,Friday
2232,0.0
2233,0.0
5265,8118.627805074569
2,13,10,13, 0, 1, 0.00,60.00,Saturday
2232,0.0
2233,0.0
5265,8108.414351134211
2,13,10,13, 0, 2, 0.00,60.00,Saturday
2232,0.0
2233,0.0
5265,8111.490549122773
2,13,10,13, 0, 3, 0.00,60.00,Saturday
2232,0.0
2233,0.0
5265,8114.530081733615
2,13,10,13, 0, 4, 0.00,60.00,Saturday
2232,0.0
2233,0.0
5265,8108.593200076921
2,13,10,13, 0, 5, 0.00,60.00,Saturday
2232,0.0
2233,0.0
5265,8102.801054807721
2,13,10,13, 0, 6, 0.00,60.00,Saturday
2232,24.92683818243115
2233,10.09559351736454
5265,8132.4947235813825
2,13,10,13, 0, 7, 0.00,60.00,Saturday
2232,150.58678553678497
2233,62.24567301974682
5265,8241.252406074957
2,13,10,13, 0, 8, 0.00,60.00,Saturday
2232,180.27806581326164
2233,112.6514822408022
5265,8386.178892149743
2,13,10,13, 0, 9, 0.00,60.00,Saturday
2232,236.53409190742279
2233,148.67346504029289
5265,58373.32596806306
2,13,10,13, 0,10, 0.00,60.00,Saturday
2232,242.35111847474389
2233,155.2985551159331
5265,82976.19788644194
2,13,10,13, 0,11, 0.00,60.00,Saturday
2232,221.24123147865633
2233,145.15090502100876
5265,93944.89571905507
2,13,10,13, 0,12, 0.00,60.00,Saturday
2232,204.040242906813
2233,135.47730428702426
5265,84461.18877005419
2,13,10,13, 0,13, 0.00,60.00,Saturday
2232,194.8450316265079
2233,128.15306405005806
5265,64054.98782280532
2,13,10,13, 0,14, 0.00,60.00,Saturday
2232,185.9148886718593
2233,119.33557277964862
5265,57461.95577778094
2,13,10,13, 0,15, 0.00,60.00,Saturday
2232,161.39634300828559
2233,101.30779149472807
5265,57597.390666200845
2,13,10,13, 0,16, 0.00,60.00,Saturday
2232,115.79217266232775
2233,71.74135124221057
5265,51791.22756704006
2,13,10,13, 0,17, 0.00,60.00,Saturday
2232,53.9248449266837
2233,33.22758695907254
5265,42198.67781425165
2,13,10,13, 0,18, 0.00,60.00,Saturday
2232,5.348352506746559
2233,3.261589359905388
5265,36060.23411647522
2,13,10,13, 0,19, 0.00,60.00,Saturday
2232,0.0
2233,0.0
5265,28645.982240586793
2,13,10,13, 0,20, 0.00,60.00,Saturday
2232,0.0
2233,0.0
5265,12673.554153552186
2,13,10,13, 0,21, 0.00,60.00,Saturday
2232,0.0
2233,0.0
5265,12506.713688496066
2,13,10,13, 0,22, 0.00,60.00,Saturday
2232,0.0
2233,0.0
5265,8685.216597772394
2,13,10,13, 0,23, 0.00,60.00,Saturday
2232,0.0
2233,0.0
5265,8440.739820521716