Program Version,EnergyPlus, Version 8.7.0-78a111df4a, YMD=2019.11.22 13:22
1,5,Environment Title[],Latitude[deg],Longitude[deg],Time Zone[],Elevation[m]
2,6,Day of Simulation[],Month[],Day of Month[],DST Indicator[1=yes 0=no],Hour[],StartMinute[],EndMinute[],DayType
3,3,Cumulative Day of Simulation[],Month[],Day of Month[],DST Indicator[1=yes 0=no],DayType  ! When Daily Report Variables Requested
4,2,Cumulative Days of Simulation[],Month[]  ! When Monthly Report Variables Requested
5,1,Cumulative Days of Simulation[] ! When Run Period Report Variables Requested
2232,1,AF305DAYLIGHINGCONTROL,Daylighting Reference Point 1 Illuminance [lux] !Hourly
2233,1,AF305DAYLIGHINGCONTROL,Daylighting Reference Point 2 Illuminance [lux] !Hourly
5265,1,Whole Building,Facility Total Electric Demand Power [W] !Hourly
End of Data Dictionary
1,RUNPERIOD,  10.30, 123.97,   8.00,  24.00
2,1,10, 1, 0, 1, 0.00,60.00,Monday
2232,0.0
2233,0.0
5265,7963.017272001282
2,1,10, 1, 0, 2, 0.00,60.00,Monday
2232,0.0
2233,0.0
5265,7877.944968411619
2,1,10, 1, 0, 3, 0.00,60.00,Monday
2232,0.0
2233,0.0
5265,7740.801417253136
2,1,10, 1, 0, 4, 0.00,60.00,Monday
2232,0.0
2233,0.0
5265,7672.267153196008
2,1,10, 1, 0, 5, 0.00,60.00,Monday
2232,0.0
2233,0.0
5265,7608.173297778648
2,1,10, 1, 0, 6, 0.00,60.00,Monday
2232,71.24927578475824
2233,25.437812728550154
5265,7667.6595646182
2,1,10, 1, 0, 7, 0.00,60.00,Monday
2232,485.4143389220801
2233,152.86517821256926
5265,7805.949225552012
2,1,10, 1, 0, 8, 0.00,60.00,Monday
2232,390.49075393967777
2233,233.4965867524816
5265,29706.342257138924
2,1,10, 1, 0, 9, 0.00,60.00,Monday
2232,438.16037165366296
2233,269.3872381300908
5265,61874.24681707583
2,1,10, 1, 0,10, 0.00,60.00,Monday
2232,406.0014667578128
2233,256.79729540099296
5265,96309.80478936382
2,1,10, 1, 0,11, 0.00,60.00,Monday
2232,330.40688735272325
2233,215.77541622525596
5265,98030.95370563143
2,1,10, 1, 0,12, 0.00,60.00,Monday
2232,259.00377227489386
2233,172.95287608185866
5265,141694.39927415169
2,1,10, 1, 0,13, 0.00,60.00,Monday
2232,255.55208969184756
2233,168.38818047790458
5265,145111.92594510859
2,1,10, 1, 0,14, 0.00,60.00,Monday
2232,246.46269396644923
2233,158.23624323458584
5265,170382.44821892796
2,1,10, 1, 0,15, 0.00,60.00,Monday
2232,193.85135594601435
2233,121.92151700123533
5265,177616.67556937345
2,1,10, 1, 0,16, 0.00,60.00,Monday
2232,127.02876442535198
2233,79.50505204263607
5265,158774.61786176565
2,1,10, 1, 0,17, 0.00,60.00,Monday
2232,51.72072951762616
2233,32.81850571712312
5265,137267.5701978904
2,1,10, 1, 0,18, 0.00,60.00,Monday
2232,5.869133021200278
2233,3.7200356062338888
5265,52789.03110526993
2,1,10, 1, 0,19, 0.00,60.00,Monday
2232,0.0
2233,0.0
5265,26000.55588710556
2,1,10, 1, 0,20, 0.00,60.00,Monday
2232,0.0
2233,0.0
5265,10994.510620013816
2,1,10, 1, 0,21, 0.00,60.00,Monday
2232,0.0
2233,0.0
5265,8577.829551667242
2,1,10, 1, 0,22, 0.00,60.00,Monday
2232,0.0
2233,0.0
5265,8150.59601330973
2,1,10, 1, 0,23, 0.00,60.00,Monday
2232,0.0
2233,0.0
5265,8136.9201480324655
2,1,10, 1, 0,24, 0.00,60.00,Monday
2232,0.0
2233,0.0
5265,8119.429471205141
2,2,10, 2, 0, 1, 0.00,60.00,Tuesday
2232,0.0
2233,0.0
5265,7871.989536985077
2,2,10, 2, 0, 2, 0.00,60.00,Tuesday
2232,0.0
2233,0.0
5265,7779.889530858968
2,2,10, 2, 0, 3, 0.00,60.00,Tuesday
2232,0.0
2233,0.0
5265,7669.911163300875
2,2,10, 2, 0, 4, 0.00,60.00,Tuesday
2232,0.0
2233,0.0
5265,7553.677197479301
2,2,10, 2, 0, 5, 0.00,60.00,Tuesday
2232,0.0
2233,0.0
5265,7426.659325282028
2,2,10, 2, 0, 6, 0.00,60.00,Tuesday
2232,71.6322525010829
2233,25.93501282972403
5265,7538.586049274793
2,2,10, 2, 0, 7, 0.00,60.00,Tuesday
2232,492.97337200449837
2233,156.97276271132689
5265,7974.399664843698
2,2,10, 2, 0, 8, 0.00,60.00,Tuesday
2232,412.7996185978822
2233,243.42672048627069
5265,21087.60269106644
2,2,10, 2, 0, 9, 0.00,60.00,Tuesday
2232,452.60457865756879
2233,277.29161639818246
5265,82563.76969170138
2,2,10, 2, 0,10, 0.00,60.00,Tuesday
2232,414.11080085771479
2233,261.562415738947
5265,115319.09781222265
2,2,10, 2, 0,11, 0.00,60.00,Tuesday
2232,321.3316395642999
2233,209.9416594464138
5265,121025.86507963711
2,2,10, 2, 0,12, 0.00,60.00,Tuesday
2232,266.90157064849378
2233,177.90427672060083
5265,151861.17695253765
2,2,10, 2, 0,13, 0.00,60.00,Tuesday
2232,257.2370256008997
2233,169.08763666163174
5265,136669.34117165485
2,2,10, 2, 0,14, 0.00,60.00,Tuesday
2232,218.3131033132996
2233,140.28261568270885
5265,154253.42383410608
2,2,10, 2, 0,15, 0.00,60.00,Tuesday
2232,181.54132375792356
2233,114.39662685509613
5265,130426.18854546525
2,2,10, 2, 0,16, 0.00,60.00,Tuesday
2232,127.42958669181913
2233,79.72367605408927
5265,135213.77790070963
2,2,10, 2, 0,17, 0.00,60.00,Tuesday
2232,64.6544757381822
2233,40.8041953936395
5265,111029.81926572095
2,2,10, 2, 0,18, 0.00,60.00,Tuesday
2232,7.29596773309586
2233,4.576243048913171
5265,109442.80950072548
2,2,10, 2, 0,19, 0.00,60.00,Tuesday
2232,0.0
2233,0.0
5265,64257.629846997384
2,2,10, 2, 0,20, 0.00,60.00,Tuesday
2232,0.0
2233,0.0
5265,31289.917712876064
2,2,10, 2, 0,21, 0.00,60.00,Tuesday
2232,0.0
2233,0.0
5265,8631.990493445248
2,2,10, 2, 0,22, 0.00,60.00,Tuesday
2232,0.0
2233,0.0
5265,8386.292650869234
2,2,10, 2, 0,23, 0.00,60.00,Tuesday
2232,0.0
2233,0.0
5265,8335.223156199596
2,2,10, 2, 0,24, 0.00,60.00,Tuesday
2232,0.0
2233,0.0
5265,8295.605639180341
2,3,10, 3, 0, 1, 0.00,60.00,Wednesday
2232,0.0
2233,0.0
5265,8219.10815841262
2,3,10, 3, 0, 2, 0.00,60.00,Wednesday
2232,0.0
2233,0.0
5265,8122.282520187309
2,3,10, 3, 0, 3, 0.00,60.00,Wednesday
2232,0.0
2233,0.0
5265,7992.530025255056
2,3,10, 3, 0, 4, 0.00,60.00,Wednesday
2232,0.0
2233,0.0
5265,7930.962564568536
2,3,10, 3, 0, 5, 0.00,60.00,Wednesday
2232,0.0
2233,0.0
5265,7859.024199148723
2,3,10, 3, 0, 6, 0.00,60.00,Wednesday
2232,27.648591262297527
2233,11.720772649841005
5265,7900.038331615531
2,3,10, 3, 0, 7, 0.00,60.00,Wednesday
2232,171.41339527541974
2233,73.86735557203186
5265,8081.749050242851
2,3,10, 3, 0, 8, 0.00,60.00,Wednesday
2232,236.39418142268074
2233,147.69862655919915
5265,25186.879516356843
2,3,10, 3, 0, 9, 0.00,60.00,Wednesday
2232,332.2523714617035
2233,208.91659652617987
5265,75803.70104676538
2,3,10, 3, 0,10, 0.00,60.00,Wednesday
2232,339.2480424726645
2233,217.45246332907088
5265,112799.53827575244
2,3,10, 3, 0,11, 0.00,60.00,Wednesday
2232,303.9689959040294
2233,199.53210987239047
5265,133466.99861746157
2,3,10, 3, 0,12, 0.00,60.00,Wednesday
2232,266.81516030512099
2233,176.8537935329767
5265,164885.22982251386
2,3,10, 3, 0,13, 0.00,60.00,Wednesday
2232,233.05210433868556
2233,153.01043105627563
5265,155895.84815739288
2,3,10, 3, 0,14, 0.00,60.00,Wednesday
2232,203.17781145068913
2233,130.8899776448221
5265,152953.2584435114
2,3,10, 3, 0,15, 0.00,60.00,Wednesday
2232,187.62307008239328
2233,118.12694302952717
5265,158430.76462878925
2,3,10, 3, 0,16, 0.00,60.00,Wednesday
2232,150.32026044979629
2233,93.75438307771715
5265,123689.40236287425
2,3,10, 3, 0,17, 0.00,60.00,Wednesday
2232,78.99840609535956
2233,48.814435302629849
5265,68641.87615896687
2,3,10, 3, 0,18, 0.00,60.00,Wednesday
2232,9.475761774932105
2233,5.772616777497194
5265,52189.27514080168
2,3,10, 3, 0,19, 0.00,60.00,Wednesday
2232,0.0
2233,0.0
5265,22665.831820035444
2,3,10, 3, 0,20, 0.00,60.00,Wednesday
2232,0.0
2233,0.0
5265,9043.168982406913
2,3,10, 3, 0,21, 0.00,60.00,Wednesday
2232,0.0
2233,0.0
5265,8520.475370207962
2,3,10, 3, 0,22, 0.00,60.00,Wednesday
2232,0.0
2233,0.0
5265,8100.672502758949
2,3,10, 3, 0,23, 0.00,60.00,Wednesday
2232,0.0
2233,0.0
5265,8126.978242122001
2,3,10, 3, 0,24, 0.00,60.00,Wednesday
2232,0.0
2233,0.0
5265,8124.365848511068
2,4,10, 4, 0, 1, 0.00,60.00,Thursday
2232,0.0
2233,0.0
5265,8060.245677732455
2,4,10, 4, 0, 2, 0.00,60.00,Thursday
2232,0.0
2233,0.0
5265,7985.0548774862555
2,4,10, 4, 0, 3, 0.00,60.00,Thursday
2232,0.0
2233,0.0
5265,7924.356628214905
2,4,10, 4, 0, 4, 0.00,60.00,Thursday
2232,0.0
2233,0.0
5265,7909.207559840378
2,4,10, 4, 0, 5, 0.00,60.00,Thursday
2232,0.0
2233,0.0
5265,7907.254894739054
2,4,10, 4, 0, 6, 0.00,60.00,Thursday
2232,37.662886171446078
2233,14.609415815809835
5265,7929.302935569056
2,4,10, 4, 0, 7, 0.00,60.00,Thursday
2232,238.142172587464
2233,93.86624842606835
5265,8000.980985159746
2,4,10, 4, 0, 8, 0.00,60.00,Thursday
2232,283.7452612202199
2233,176.9781342417239
5265,22700.72155362889
2,4,10, 4, 0, 9, 0.00,60.00,Thursday
2232,343.94769308021366
2233,216.22323440993527
5265,96413.77052733943
2,4,10, 4, 0,10, 0.00,60.00,Thursday
2232,338.9074656719594
2233,217.30003030646768
5265,132216.6008294253
2,4,10, 4, 0,11, 0.00,60.00,Thursday
2232,302.6038522209723
2233,198.6517635635968
5265,157496.03587683265
2,4,10, 4, 0,12, 0.00,60.00,Thursday
2232,275.60407763108449
2233,182.96485917524124
5265,161824.1910705235
2,4,10, 4, 0,13, 0.00,60.00,Thursday
2232,260.73071739261249
2233,171.38561018504098
5265,164422.44411525236
2,4,10, 4, 0,14, 0.00,60.00,Thursday
2232,245.01679508028495
2233,157.23629668857496
5265,176311.94640655805
2,4,10, 4, 0,15, 0.00,60.00,Thursday
2232,221.94774308321449
2233,139.30511797284985
5265,165973.6492244501
2,4,10, 4, 0,16, 0.00,60.00,Thursday
2232,165.35772797263443
2233,102.17000747589235
5265,172266.27029975723
2,4,10, 4, 0,17, 0.00,60.00,Thursday
2232,84.60961974714259
2233,51.768329423201958
5265,160454.3946169028
2,4,10, 4, 0,18, 0.00,60.00,Thursday
2232,11.17607871475868
2233,6.763927031485205
5265,87298.28440074984
2,4,10, 4, 0,19, 0.00,60.00,Thursday
2232,0.0
2233,0.0
5265,62352.45226679617
2,4,10, 4, 0,20, 0.00,60.00,Thursday
2232,0.0
2233,0.0
5265,44481.81365281241
2,4,10, 4, 0,21, 0.00,60.00,Thursday
2232,0.0
2233,0.0
5265,8250.419480336404
2,4,10, 4, 0,22, 0.00,60.00,Thursday
2232,0.0
2233,0.0
5265,8238.360843048538
2,4,10, 4, 0,23, 0.00,60.00,Thursday
2232,0.0
2233,0.0
5265,8235.496406499775
2,4,10, 4, 0,24, 0.00,60.00,Thursday
2232,0.0
2233,0.0
5265,8191.882756048563
2,5,10, 5, 0, 1, 0.00,60.00,Friday
2232,0.0
2233,0.0
5265,8095.206772814917
2,5,10, 5, 0, 2, 0.00,60.00,Friday
2232,0.0
2233,0.0
5265,7996.323249992221
2,5,10, 5, 0, 3, 0.00,60.00,Friday
2232,0.0
2233,0.0
5265,7931.840545747746
2,5,10, 5, 0, 4, 0.00,60.00,Friday
2232,0.0
2233,0.0
5265,7915.329472777436
2,5,10, 5, 0, 5, 0.00,60.00,Friday
2232,0.0
2233,0.0
5265,7907.040288792581
2,5,10, 5, 0, 6, 0.00,60.00,Friday
2232,53.79402502801645
2233,20.379023126069919
5265,7922.972001138162
2,5,10, 5, 0, 7, 0.00,60.00,Friday
2232,350.6602909670624
2233,125.84807735414224
5265,7981.209672108217
2,5,10, 5, 0, 8, 0.00,60.00,Friday
2232,310.4847420639846
2233,192.8679766298524
5265,28014.380316179497
2,5,10, 5, 0, 9, 0.00,60.00,Friday
2232,357.23129238148189
2233,223.916171009653
5265,70319.01216192164
2,5,10, 5, 0,10, 0.00,60.00,Friday
2232,334.3111736402215
2233,214.31408223188525
5265,137594.93103974139
2,5,10, 5, 0,11, 0.00,60.00,Friday
2232,297.37749582116819
2233,195.20671642432925
5265,136158.9478709906
2,5,10, 5, 0,12, 0.00,60.00,Friday
2232,262.3106593088219
2233,174.97634166164549
5265,142519.65220258226
2,5,10, 5, 0,13, 0.00,60.00,Friday
2232,261.99774727046118
2233,172.06484136725818
5265,156296.46167873266
2,5,10, 5, 0,14, 0.00,60.00,Friday
2232,281.60679730313395
2233,179.06037941553067
5265,166606.7512950498
2,5,10, 5, 0,15, 0.00,60.00,Friday
2232,258.50560489248
2233,159.67921666795409
5265,145363.70663904245
2,5,10, 5, 0,16, 0.00,60.00,Friday
2232,173.9125321823326
2233,106.08823799882612
5265,126677.22159536423
2,5,10, 5, 0,17, 0.00,60.00,Friday
2232,83.65134731863147
2233,51.104902477596919
5265,117316.33943341281
2,5,10, 5, 0,18, 0.00,60.00,Friday
2232,9.199942582727616
2233,5.583820681436474
5265,55630.456451637205
2,5,10, 5, 0,19, 0.00,60.00,Friday
2232,0.0
2233,0.0
5265,29414.28550229617
2,5,10, 5, 0,20, 0.00,60.00,Friday
2232,0.0
2233,0.0
5265,18544.724003834835
2,5,10, 5, 0,21, 0.00,60.00,Friday
2232,0.0
2233,0.0
5265,13414.022135361987
2,5,10, 5, 0,22, 0.00,60.00,Friday
2232,0.0
2233,0.0
5265,8304.737795426134
2,5,10, 5, 0,23, 0.00,60.00,Friday
2232,0.0
2233,0.0
5265,8277.06456427606
2,5,10, 5, 0,24, 0.00,60.00,Friday
2232,0.0
2233,0.0
5265,8254.17180377928
2,6,10, 6, 0, 1, 0.00,60.00,Saturday
2232,0.0
2233,0.0
5265,8229.446580469854
2,6,10, 6, 0, 2, 0.00,60.00,Saturday
2232,0.0
2233,0.0
5265,8214.045773782507
2,6,10, 6, 0, 3, 0.00,60.00,Saturday
2232,0.0
2233,0.0
5265,8188.439434952014
2,6,10, 6, 0, 4, 0.00,60.00,Saturday
2232,0.0
2233,0.0
5265,8167.347067399972
2,6,10, 6, 0, 5, 0.00,60.00,Saturday
2232,0.0
2233,0.0
5265,8150.21143241839
2,6,10, 6, 0, 6, 0.00,60.00,Saturday
2232,23.6951247500939
2233,10.57425208755596
5265,8125.042761609343
2,6,10, 6, 0, 7, 0.00,60.00,Saturday
2232,145.58496459865078
2233,65.88168568979802
5265,8090.025037488941
2,6,10, 6, 0, 8, 0.00,60.00,Saturday
2232,210.67304459533094
2233,131.3944568171129
5265,8086.386202760589
2,6,10, 6, 0, 9, 0.00,60.00,Saturday
2232,319.8527750235641
2233,201.12885123383317
5265,42058.63928884817
2,6,10, 6, 0,10, 0.00,60.00,Saturday
2232,338.47120020666906
2233,217.0037335431824
5265,62932.418488514806
2,6,10, 6, 0,11, 0.00,60.00,Saturday
2232,304.3768427508939
2233,199.89526891996207
5265,77404.97701548827
2,6,10, 6, 0,12, 0.00,60.00,Saturday
2232,280.7124385846394
2233,186.7416677974419
5265,71536.0372369414
2,6,10, 6, 0,13, 0.00,60.00,Saturday
2232,264.90167203550609
2233,174.27756390907732
5265,60062.070373200004
2,6,10, 6, 0,14, 0.00,60.00,Saturday
2232,246.15781014076789
2233,157.95889069551917
5265,52687.48998156621
2,6,10, 6, 0,15, 0.00,60.00,Saturday
2232,214.66876067123205
2233,134.77526702403547
5265,52984.187891632704
2,6,10, 6, 0,16, 0.00,60.00,Saturday
2232,156.85093555295939
2233,97.51192699857421
5265,47828.87974616556
2,6,10, 6, 0,17, 0.00,60.00,Saturday
2232,78.62320603981006
2233,48.36167654086526
5265,39151.455718142315
2,6,10, 6, 0,18, 0.00,60.00,Saturday
2232,8.042819549419015
2233,4.897811056249293
5265,35235.72845978663
2,6,10, 6, 0,19, 0.00,60.00,Saturday
2232,0.0
2233,0.0
5265,28441.657712200835
2,6,10, 6, 0,20, 0.00,60.00,Saturday
2232,0.0
2233,0.0
5265,11605.641480478407
2,6,10, 6, 0,21, 0.00,60.00,Saturday
2232,0.0
2233,0.0
5265,11478.671047145292
2,6,10, 6, 0,22, 0.00,60.00,Saturday
2232,0.0
2233,0.0
5265,8658.961778557297
2,6,10, 6, 0,23, 0.00,60.00,Saturday
2232,0.0
2233,0.0
5265,8334.406959672671
2,6,10, 6, 0,24, 0.00,60.00,Saturday
2232,0.0
2233,0.0
5265,8165.173672587091
2,7,10, 7, 0, 1, 0.00,60.00,Sunday
2232,0.0
2233,0.0
5265,8112.772636016136
2,7,10, 7, 0, 2, 0.00,60.00,Sunday
2232,0.0
2233,0.0
5265,8091.682416000374
2,7,10, 7, 0, 3, 0.00,60.00,Sunday
2232,0.0
2233,0.0
5265,8063.982757300689
2,7,10, 7, 0, 4, 0.00,60.00,Sunday
2232,0.0
2233,0.0
5265,8020.335031423824
2,7,10, 7, 0, 5, 0.00,60.00,Sunday
2232,0.0
2233,0.0
5265,7973.107022768568
2,7,10, 7, 0, 6, 0.00,60.00,Sunday
2232,25.104620438650036
2233,10.880504713988373
5265,7953.679509726105
2,7,10, 7, 0, 7, 0.00,60.00,Sunday
2232,158.3020769695909
2233,70.11926111440988
5265,7998.8555598905805
2,7,10, 7, 0, 8, 0.00,60.00,Sunday
2232,230.74900625322048
2233,144.18047218985786
5265,8087.067408108924
2,7,10, 7, 0, 9, 0.00,60.00,Sunday
2232,304.068792951399
2233,191.20076948980327
5265,8195.043180531668
2,7,10, 7, 0,10, 0.00,60.00,Sunday
2232,310.672755070601
2233,199.1528526508807
5265,8298.517559930124
2,7,10, 7, 0,11, 0.00,60.00,Sunday
2232,283.41851761271877
2233,185.78497179485036
5265,8361.44565579733
2,7,10, 7, 0,12, 0.00,60.00,Sunday
2232,256.0921097304078
2233,169.57361074111516
5265,8363.0916942529
2,7,10, 7, 0,13, 0.00,60.00,Sunday
2232,242.6668589438316
2233,159.290955899747
5265,8304.506965285342
2,7,10, 7, 0,14, 0.00,60.00,Sunday
2232,225.5125183561056
2233,144.7460211394366
5265,8242.368082581888
2,7,10, 7, 0,15, 0.00,60.00,Sunday
2232,204.47354542265115
2233,128.51516248397506
5265,8227.590721096263
2,7,10, 7, 0,16, 0.00,60.00,Sunday
2232,151.25610959351278
2233,94.21775436396034
5265,8282.874299464771
2,7,10, 7, 0,17, 0.00,60.00,Sunday
2232,75.8722442672108
2233,46.83193295440529
5265,8346.15362769769
2,7,10, 7, 0,18, 0.00,60.00,Sunday
2232,7.754167230823387
2233,4.732084789056554
5265,8381.194342424771
2,7,10, 7, 0,19, 0.00,60.00,Sunday
2232,0.0
2233,0.0
5265,8346.99225221711
2,7,10, 7, 0,20, 0.00,60.00,Sunday
2232,0.0
2233,0.0
5265,8292.675426814672
2,7,10, 7, 0,21, 0.00,60.00,Sunday
2232,0.0
2233,0.0
5265,8241.201722862339
2,7,10, 7, 0,22, 0.00,60.00,Sunday
2232,0.0
2233,0.0
5265,8182.7270854134185
2,7,10, 7, 0,23, 0.00,60.00,Sunday
2232,0.0
2233,0.0
5265,8116.935100490799
2,7,10, 7, 0,24, 0.00,60.00,Sunday
2232,0.0
2233,0.0
5265,8073.460083694924
2,8,10, 8, 0, 1, 0.00,60.00,Monday
2232,0.0
2233,0.0
5265,7700.771571592064
2,8,10, 8, 0, 2, 0.00,60.00,Monday
2232,0.0
2233,0.0
5265,7745.2120279901255
2,8,10, 8, 0, 3, 0.00,60.00,Monday
2232,0.0
2233,0.0
5265,7692.45577994639
2,8,10, 8, 0, 4, 0.00,60.00,Monday
2232,0.0
2233,0.0
5265,7618.318361693061
2,8,10, 8, 0, 5, 0.00,60.00,Monday
2232,0.0
2233,0.0
5265,7550.809123135042
2,8,10, 8, 0, 6, 0.00,60.00,Monday
2232,27.577742446154344
2233,11.635307424328693
5265,7497.418424476993
2,8,10, 8, 0, 7, 0.00,60.00,Monday
2232,166.31233591684805
2233,71.46356533388466
5265,7473.771178989881
2,8,10, 8, 0, 8, 0.00,60.00,Monday
2232,215.36912438121889
2233,134.5100441162305
5265,29277.84489993137
2,8,10, 8, 0, 9, 0.00,60.00,Monday
2232,297.719099515221
2233,187.25154038954529
5265,60368.1993224339
2,8,10, 8, 0,10, 0.00,60.00,Monday
2232,312.2352657113894
2233,200.16350410982273
5265,88311.49903127004
2,8,10, 8, 0,11, 0.00,60.00,Monday
2232,289.1231479177313
2233,189.63668786245726
5265,90520.99822065437
2,8,10, 8, 0,12, 0.00,60.00,Monday
2232,258.23162023431277
2233,171.03850515897765
5265,129792.12710571669
2,8,10, 8, 0,13, 0.00,60.00,Monday
2232,232.07528505074849
2233,152.348551534971
5265,132443.53446067879
2,8,10, 8, 0,14, 0.00,60.00,Monday
2232,197.09560045217507
2233,127.03739549860757
5265,165532.98591288634
2,8,10, 8, 0,15, 0.00,60.00,Monday
2232,159.90629636675303
2233,101.26234210754035
5265,174822.41050804684
2,8,10, 8, 0,16, 0.00,60.00,Monday
2232,111.50484452063329
2233,70.0868500488023
5265,156185.77010739383
2,8,10, 8, 0,17, 0.00,60.00,Monday
2232,53.71109944660614
2233,34.01893407745196
5265,135130.91527428138
2,8,10, 8, 0,18, 0.00,60.00,Monday
2232,5.54635950251699
2233,3.4920028661008866
5265,52373.42386057368
2,8,10, 8, 0,19, 0.00,60.00,Monday
2232,0.0
2233,0.0
5265,25742.620692718116
2,8,10, 8, 0,20, 0.00,60.00,Monday
2232,0.0
2233,0.0
5265,10856.941107659915
2,8,10, 8, 0,21, 0.00,60.00,Monday
2232,0.0
2233,0.0
5265,8428.072593938568
2,8,10, 8, 0,22, 0.00,60.00,Monday
2232,0.0
2233,0.0
5265,7979.515682895842
2,8,10, 8, 0,23, 0.00,60.00,Monday
2232,0.0
2233,0.0
5265,7943.407181090675
2,8,10, 8, 0,24, 0.00,60.00,Monday
2232,0.0
2233,0.0
5265,7915.20958800906
2,9,10, 9, 0, 1, 0.00,60.00,Tuesday
2232,0.0
2233,0.0
5265,7120.5915495956
2,9,10, 9, 0, 2, 0.00,60.00,Tuesday
2232,0.0
2233,0.0
5265,7209.060658572204
2,9,10, 9, 0, 3, 0.00,60.00,Tuesday
2232,0.0
2233,0.0
5265,7156.0524311713125
2,9,10, 9, 0, 4, 0.00,60.00,Tuesday
2232,0.0
2233,0.0
5265,7082.27549654003
2,9,10, 9, 0, 5, 0.00,60.00,Tuesday
2232,0.0
2233,0.0
5265,7004.165349128461
2,9,10, 9, 0, 6, 0.00,60.00,Tuesday
2232,53.22759585500828
2233,20.390799780573408
5265,7131.557591274628
2,9,10, 9, 0, 7, 0.00,60.00,Tuesday
2232,362.0901348768934
2233,131.29889612107133
5265,7521.2229145925885
2,9,10, 9, 0, 8, 0.00,60.00,Tuesday
2232,371.59037070649716
2233,225.42610698928199
5265,20824.87459793616
2,9,10, 9, 0, 9, 0.00,60.00,Tuesday
2232,435.2073243250736
2233,268.6893624816673
5265,73756.13269972452
2,9,10, 9, 0,10, 0.00,60.00,Tuesday
2232,405.724529177829
2233,256.72387181906898
5265,105930.40578041096
2,9,10, 9, 0,11, 0.00,60.00,Tuesday
2232,331.4719349041529
2233,216.35484335559046
5265,114656.41314901097
2,9,10, 9, 0,12, 0.00,60.00,Tuesday
2232,281.4240716116434
2233,187.42486155632506
5265,152615.40390270897
2,9,10, 9, 0,13, 0.00,60.00,Tuesday
2232,278.25148311792949
2233,182.80614087026263
5265,144445.8509896216
2,9,10, 9, 0,14, 0.00,60.00,Tuesday
2232,280.07227913154369
2233,178.22127471722244
5265,168170.7957751843
2,9,10, 9, 0,15, 0.00,60.00,Tuesday
2232,235.56546757200077
2233,145.673111536638
5265,147194.30467866807
2,9,10, 9, 0,16, 0.00,60.00,Tuesday
2232,158.22534971262838
2233,97.8892021346059
5265,149761.6536268493
2,9,10, 9, 0,17, 0.00,60.00,Tuesday
2232,65.62194887120387
2233,41.09698761461484
5265,125507.83279368289
2,9,10, 9, 0,18, 0.00,60.00,Tuesday
2232,6.197658819056699
2233,3.860174077994295
5265,111275.59807797359
2,9,10, 9, 0,19, 0.00,60.00,Tuesday
2232,0.0
2233,0.0
5265,66395.64673134801
2,9,10, 9, 0,20, 0.00,60.00,Tuesday
2232,0.0
2233,0.0
5265,32350.15317562237
2,9,10, 9, 0,21, 0.00,60.00,Tuesday
2232,0.0
2233,0.0
5265,8656.830151107755
2,9,10, 9, 0,22, 0.00,60.00,Tuesday
2232,0.0
2233,0.0
5265,8394.976009909158
2,9,10, 9, 0,23, 0.00,60.00,Tuesday
2232,0.0
2233,0.0
5265,8304.569351438606
2,9,10, 9, 0,24, 0.00,60.00,Tuesday
2232,0.0
2233,0.0
5265,8258.633443928307
2,10,10,10, 0, 1, 0.00,60.00,Wednesday
2232,0.0
2233,0.0
5265,8229.035587689104
2,10,10,10, 0, 2, 0.00,60.00,Wednesday
2232,0.0
2233,0.0
5265,8203.793163465934
2,10,10,10, 0, 3, 0.00,60.00,Wednesday
2232,0.0
2233,0.0
5265,8174.521310340281
2,10,10,10, 0, 4, 0.00,60.00,Wednesday
2232,0.0
2233,0.0
5265,8125.456259642415
2,10,10,10, 0, 5, 0.00,60.00,Wednesday
2232,0.0
2233,0.0
5265,8006.01816211523
2,10,10,10, 0, 6, 0.00,60.00,Wednesday
2232,28.407079052513116
2233,12.02032876588173
5265,8027.041098091223
2,10,10,10, 0, 7, 0.00,60.00,Wednesday
2232,168.59053193899974
2233,72.51207551770642
5265,8195.323882729324
2,10,10,10, 0, 8, 0.00,60.00,Wednesday
2232,211.23323200753877
2233,131.70830898782564
5265,25401.093808891106
2,10,10,10, 0, 9, 0.00,60.00,Wednesday
2232,319.6541016281901
2233,200.94086814606986
5265,81059.40467789503
2,10,10,10, 0,10, 0.00,60.00,Wednesday
2232,336.2805461879295
2233,215.5723627836007
5265,113668.28831425817
2,10,10,10, 0,11, 0.00,60.00,Wednesday
2232,298.8759871333386
2233,196.3723791627602
5265,135718.55638765024
2,10,10,10, 0,12, 0.00,60.00,Wednesday
2232,242.33269650998259
2233,162.03778594646654
5265,171932.80738964678
2,10,10,10, 0,13, 0.00,60.00,Wednesday
2232,260.92403064841
2233,171.30377090730046
5265,172176.8923566023
2,10,10,10, 0,14, 0.00,60.00,Wednesday
2232,274.5459550657027
2233,174.42653120131946
5265,172376.13604443617
2,10,10,10, 0,15, 0.00,60.00,Wednesday
2232,256.915792738184
2233,158.79817050060374
5265,178799.15024260965
2,10,10,10, 0,16, 0.00,60.00,Wednesday
2232,195.55852972446153
2233,119.04508304299334
5265,145204.01779587699
2,10,10,10, 0,17, 0.00,60.00,Wednesday
2232,100.95097306421836
2233,61.07638276642334
5265,83762.77910763545
2,10,10,10, 0,18, 0.00,60.00,Wednesday
2232,10.656360530414134
2233,6.360066239598809
5265,52929.779003129224
2,10,10,10, 0,19, 0.00,60.00,Wednesday
2232,0.0
2233,0.0
5265,23338.911972433027
2,10,10,10, 0,20, 0.00,60.00,Wednesday
2232,0.0
2233,0.0
5265,9365.682073321525
2,10,10,10, 0,21, 0.00,60.00,Wednesday
2232,0.0
2233,0.0
5265,8908.760575751769
2,10,10,10, 0,22, 0.00,60.00,Wednesday
2232,0.0
2233,0.0
5265,8464.123618059764
2,10,10,10, 0,23, 0.00,60.00,Wednesday
2232,0.0
2233,0.0
5265,8432.466512968485
2,10,10,10, 0,24, 0.00,60.00,Wednesday
2232,0.0
2233,0.0
5265,8395.131578654298
2,11,10,11, 0, 1, 0.00,60.00,Thursday
2232,0.0
2233,0.0
5265,8344.516751920219
2,11,10,11, 0, 2, 0.00,60.00,Thursday
2232,0.0
2233,0.0
5265,8283.973074893398
2,11,10,11, 0, 3, 0.00,60.00,Thursday
2232,0.0
2233,0.0
5265,8244.031929203144
2,11,10,11, 0, 4, 0.00,60.00,Thursday
2232,0.0
2233,0.0
5265,8217.444576781325
2,11,10,11, 0, 5, 0.00,60.00,Thursday
2232,0.0
2233,0.0
5265,8191.053849850247
2,11,10,11, 0, 6, 0.00,60.00,Thursday
2232,33.17118491670842
2233,13.474937818498
5265,8212.638669889111
2,11,10,11, 0, 7, 0.00,60.00,Thursday
2232,200.7805201024531
2233,83.18385692637867
5265,8318.639162268935
2,11,10,11, 0, 8, 0.00,60.00,Thursday
2232,240.1510767200758
2233,150.0310371319897
5265,23844.941872967025
2,11,10,11, 0, 9, 0.00,60.00,Thursday
2232,307.0869451177403
2233,193.02792870043883
5265,114448.10334656855
2,11,10,11, 0,10, 0.00,60.00,Thursday
2232,312.47565565747899
2233,200.26503763925803
5265,148920.25597647075
2,11,10,11, 0,11, 0.00,60.00,Thursday
2232,290.0171656411666
2233,190.1611873066621
5265,167482.7937966199
2,11,10,11, 0,12, 0.00,60.00,Thursday
2232,273.64894568246509
2233,181.63277011050028
5265,169462.73784741466
2,11,10,11, 0,13, 0.00,60.00,Thursday
2232,263.7727757700087
2233,173.5774558857789
5265,172214.68894950144
2,11,10,11, 0,14, 0.00,60.00,Thursday
2232,250.76252487101315
2233,160.73509193535603
5265,184391.56150986497
2,11,10,11, 0,15, 0.00,60.00,Thursday
2232,219.1641347522109
2233,137.55751728395897
5265,180401.53275720255
2,11,10,11, 0,16, 0.00,60.00,Thursday
2232,155.12964626105728
2233,96.22766249636833
5265,182044.1450029692
2,11,10,11, 0,17, 0.00,60.00,Thursday
2232,74.00171787757458
2233,45.539683278475319
5265,168454.46572894808
2,11,10,11, 0,18, 0.00,60.00,Thursday
2232,7.537447800885629
2233,4.595052546286368
5265,88505.85203977418
2,11,10,11, 0,19, 0.00,60.00,Thursday
2232,0.0
2233,0.0
5265,63660.93665239619
2,11,10,11, 0,20, 0.00,60.00,Thursday
2232,0.0
2233,0.0
5265,45720.00231697888
2,11,10,11, 0,21, 0.00,60.00,Thursday
2232,0.0
2233,0.0
5265,8469.398074218532
2,11,10,11, 0,22, 0.00,60.00,Thursday
2232,0.0
2233,0.0
5265,8423.894726082908
2,11,10,11, 0,23, 0.00,60.00,Thursday
2232,0.0
2233,0.0
5265,8382.4263712918
2,11,10,11, 0,24, 0.00,60.00,Thursday
2232,0.0
2233,0.0
5265,8335.936121752626
2,12,10,12, 0, 1, 0.00,60.00,Friday
2232,0.0
2233,0.0
5265,8264.511717651383
2,12,10,12, 0, 2, 0.00,60.00,Friday
2232,0.0
2233,0.0
5265,8186.135222060075
2,12,10,12, 0, 3, 0.00,60.00,Friday
2232,0.0
2233,0.0
5265,8152.346726304557
2,12,10,12, 0, 4, 0.00,60.00,Friday
2232,0.0
2233,0.0
5265,8188.770379961229
2,12,10,12, 0, 5, 0.00,60.00,Friday
2232,0.0
2233,0.0
5265,8226.176591605361
2,12,10,12, 0, 6, 0.00,60.00,Friday
2232,31.08642759486246
2233,12.826876658761263
5265,8260.891523403945
2,12,10,12, 0, 7, 0.00,60.00,Friday
2232,194.32577802919253
2233,81.37707706715678
5265,8331.120137556709
2,12,10,12, 0, 8, 0.00,60.00,Friday
2232,245.46625535476836
2233,153.49668018790397
5265,29224.685340325046
2,12,10,12, 0, 9, 0.00,60.00,Friday
2232,316.57229228767849
2233,198.9847653653411
5265,92036.87287683533
2,12,10,12, 0,10, 0.00,60.00,Friday
2232,320.75676506485368
2233,205.54452811403557
5265,150659.9590590146
2,12,10,12, 0,11, 0.00,60.00,Friday
2232,292.84622561538478
2233,192.08777017032723
5265,149064.83924245466
2,12,10,12, 0,12, 0.00,60.00,Friday
2232,268.948716689877
2233,178.3875182400009
5265,151911.01684419963
2,12,10,12, 0,13, 0.00,60.00,Friday
2232,254.11971341448985
2233,166.96050660712604
5265,161246.28561322523
2,12,10,12, 0,14, 0.00,60.00,Friday
2232,239.15899884577096
2233,153.47985935868685
5265,168624.99140850086
2,12,10,12, 0,15, 0.00,60.00,Friday
2232,208.1186927071619
2233,130.70363177838574
5265,148984.69100767835
2,12,10,12, 0,16, 0.00,60.00,Friday
2232,150.13516796453198
2233,93.44250518338431
5265,131967.6763847257
2,12,10,12, 0,17, 0.00,60.00,Friday
2232,70.15693117932675
2233,43.42610098876913
5265,122254.06469989226
2,12,10,12, 0,18, 0.00,60.00,Friday
2232,6.949649140799708
2233,4.2552505129545479
5265,56022.65632710729
2,12,10,12, 0,19, 0.00,60.00,Friday
2232,0.0
2233,0.0
5265,29689.97272809756
2,12,10,12, 0,20, 0.00,60.00,Friday
2232,0.0
2233,0.0
5265,18675.157824689173
2,12,10,12, 0,21, 0.00,60.00,Friday
2232,0.0
2233,0.0
5265,13467.812602408218
2,12,10,12, 0,22, 0.00,60.00,Friday
2232,0.0
2233,0.0
5265,8283.892801662207
2,12,10,12, 0,23, 0.00,60.00,Friday
2232,0.0
2233,0.0
5265,8186.292397688251
2,12,10,12, 0,24, 0.00,60.00,Friday
2232,0.0
2233,0.0
5265,8118.627805074569
2,13,10,13, 0, 1, 0.00,60.00,Saturday
2232,0.0
2233,0.0
5265,8108.414351134211
2,13,10,13, 0, 2, 0.00,60.00,Saturday
2232,0.0
2233,0.0
5265,8111.490549122773
2,13,10,13, 0, 3, 0.00,60.00,Saturday
2232,0.0
2233,0.0
5265,8114.530081733615
2,13,10,13, 0, 4, 0.00,60.00,Saturday
2232,0.0
2233,0.0
5265,8108.593200076921
2,13,10,13, 0, 5, 0.00,60.00,Saturday
2232,0.0
2233,0.0
5265,8102.801054807721
2,13,10,13, 0, 6, 0.00,60.00,Saturday
2232,33.23578424324074
2233,13.460791356485985
5265,8132.4947235813825
2,13,10,13, 0, 7, 0.00,60.00,Saturday
2232,200.78238071570923
2233,82.99423069299627
5265,8241.252406074957
2,13,10,13, 0, 8, 0.00,60.00,Saturday
2232,240.3707544176838
2233,150.20197632106636
5265,8386.178892149743
2,13,10,13, 0, 9, 0.00,60.00,Saturday
2232,315.3787892098979
2233,198.231286720385
5265,58373.32596806306
2,13,10,13, 0,10, 0.00,60.00,Saturday
2232,323.1348246329922
2233,207.0647401545716
5265,82976.19788644194
2,13,10,13, 0,11, 0.00,60.00,Saturday
2232,294.9883086382086
2233,193.53454002800627
5265,93944.89571905507
2,13,10,13, 0,12, 0.00,60.00,Saturday
2232,272.05365720908397
2233,180.63640571602734
5265,84461.18877005419
2,13,10,13, 0,13, 0.00,60.00,Saturday
2232,259.79337550201037
2233,170.87075206673934
5265,64054.98782280532
2,13,10,13, 0,14, 0.00,60.00,Saturday
2232,247.8865182291456
2233,159.1140970395271
5265,57461.95577778094
2,13,10,13, 0,15, 0.00,60.00,Saturday
2232,215.19512401104726
2233,135.07705532630036
5265,57597.390666200845
2,13,10,13, 0,16, 0.00,60.00,Saturday
2232,154.3895635497702
2233,95.6551349896114
5265,51791.22756704006
2,13,10,13, 0,17, 0.00,60.00,Saturday
2232,71.8997932355782
2233,44.303449278762069
5265,42198.67781425165
2,13,10,13, 0,18, 0.00,60.00,Saturday
2232,7.131136675662067
2233,4.348785813207043
5265,36060.23411647522
2,13,10,13, 0,19, 0.00,60.00,Saturday
2232,0.0
2233,0.0
5265,28645.982240586793
2,13,10,13, 0,20, 0.00,60.00,Saturday
2232,0.0
2233,0.0
5265,12673.554153552186
2,13,10,13, 0,21, 0.00,60.00,Saturday
2232,0.0
2233,0.0
5265,12506.713688496066
2,13,10,13, 0,22, 0.00,60.00,Saturday
2232,0.0
2233,0.0
5265,8685.216597772394
2,13,10,13, 0,23, 0.00,60.00,Saturday
2232,0.0
2233,0.0
5265,8440.739820521716
2,13,10,13, 0,24, 0.00,60.00,Saturday
2232,0.0