Program Version,EnergyPlus, Version 8.7.0-78a111df4a, YMD=2019.11.22 13:25
1,5,Environment Title[],Latitude[deg],Longitude[deg],Time Zone[],Elevation[m]
2,6,Day of Simulation[],Month[],Day of Month[],DST Indicator[1=yes 0=no],Hour[],StartMinute[],EndMinute[],DayType
3,3,Cumulative Day of Simulation[],Month[],Day of Month[],DST Indicator[1=yes 0=no],DayType  ! When Daily Report Variables Requested
4,2,Cumulative Days of Simulation[],Month[]  ! When Monthly Report Variables Requested
5,1,Cumulative Days of Simulation[] ! When Run Period Report Variables Requested
2232,1,AF305DAYLIGHINGCONTROL,Daylighting Reference Point 1 Illuminance [lux] !Hourly
2233,1,AF305DAYLIGHINGCONTROL,Daylighting Reference Point 2 Illuminance [lux] !Hourly
5265,1,Whole Building,Facility Total Electric Demand Power [W] !Hourly
End of Data Dictionary
1,RUNPERIOD,  10.30, 123.97,   8.00,  24.00
2,1,10, 1, 0, 1, 0.00,60.00,Monday
2232,0.0
2233,0.0
5265,7963.017272001282
2,1,10, 1, 0, 2, 0.00,60.00,Monday
2232,0.0
2233,0.0
5265,7877.944968411619
2,1,10, 1, 0, 3, 0.00,60.00,Monday
2232,0.0
2233,0.0
5265,7740.801417253136
2,1,10, 1, 0, 4, 0.00,60.00,Monday
2232,0.0
2233,0.0
5265,7672.267153196008
2,1,10, 1, 0, 5, 0.00,60.00,Monday
2232,0.0
2233,0.0
5265,7608.173297778648
2,1,10, 1, 0, 6, 0.00,60.00,Monday
2232,106.87391367713947
2233,38.15671909282566
5265,7667.6595646182
2,1,10, 1, 0, 7, 0.00,60.00,Monday
2232,728.1215083831395
2233,229.29776731884636
5265,7805.949225552012
2,1,10, 1, 0, 8, 0.00,60.00,Monday
2232,585.7361309095089
2233,350.2448801287255
5265,29706.342257138924
2,1,10, 1, 0, 9, 0.00,60.00,Monday
2232,657.2405574804926
2233,404.0808571951471
5265,61874.24681707583
2,1,10, 1, 0,10, 0.00,60.00,Monday
2232,609.0022001367196
2233,385.19594310150168
5265,96309.80478936382
2,1,10, 1, 0,11, 0.00,60.00,Monday
2232,495.6103310290857
2233,323.66312433789417
5265,98030.95370563143
2,1,10, 1, 0,12, 0.00,60.00,Monday
2232,388.50565841234217
2233,259.42931412279617
5265,141694.39927415169
2,1,10, 1, 0,13, 0.00,60.00,Monday
2232,383.32813453777205
2233,252.58227071686407
5265,145111.92594510859
2,1,10, 1, 0,14, 0.00,60.00,Monday
2232,369.69404094967407
2233,237.35436485188527
5265,170382.44821892796
2,1,10, 1, 0,15, 0.00,60.00,Monday
2232,290.77703391902159
2233,182.88227550185798
5265,177616.67556937345
2,1,10, 1, 0,16, 0.00,60.00,Monday
2232,190.5431466380279
2233,119.25757806395738
5265,158774.61786176565
2,1,10, 1, 0,17, 0.00,60.00,Monday
2232,77.58109427643919
2233,49.22775857568602
5265,137267.5701978904
2,1,10, 1, 0,18, 0.00,60.00,Monday
2232,8.80369953180041
2233,5.580053409350988
5265,52789.03110526993
2,1,10, 1, 0,19, 0.00,60.00,Monday
2232,0.0
2233,0.0
5265,26000.55588710556
2,1,10, 1, 0,20, 0.00,60.00,Monday
2232,0.0
2233,0.0
5265,10994.510620013816
2,1,10, 1, 0,21, 0.00,60.00,Monday
2232,0.0
2233,0.0
5265,8577.829551667242
2,1,10, 1, 0,22, 0.00,60.00,Monday
2232,0.0
2233,0.0
5265,8150.59601330973
2,1,10, 1, 0,23, 0.00,60.00,Monday
2232,0.0
2233,0.0
5265,8136.9201480324655
2,1,10, 1, 0,24, 0.00,60.00,Monday
2232,0.0
2233,0.0
5265,8119.429471205141
2,2,10, 2, 0, 1, 0.00,60.00,Tuesday
2232,0.0
2233,0.0
5265,7871.989536985077
2,2,10, 2, 0, 2, 0.00,60.00,Tuesday
2232,0.0
2233,0.0
5265,7779.889530858968
2,2,10, 2, 0, 3, 0.00,60.00,Tuesday
2232,0.0
2233,0.0
5265,7669.911163300875
2,2,10, 2, 0, 4, 0.00,60.00,Tuesday
2232,0.0
2233,0.0
5265,7553.677197479301
2,2,10, 2, 0, 5, 0.00,60.00,Tuesday
2232,0.0
2233,0.0
5265,7426.659325282028
2,2,10, 2, 0, 6, 0.00,60.00,Tuesday
2232,107.44837875162638
2233,38.90251924458656
5265,7538.586049274793
2,2,10, 2, 0, 7, 0.00,60.00,Tuesday
2232,739.4600580067669
2233,235.45914406698308
5265,7974.399664843698
2,2,10, 2, 0, 8, 0.00,60.00,Tuesday
2232,619.1994278968151
2233,365.14008072940916
5265,21087.60269106644
2,2,10, 2, 0, 9, 0.00,60.00,Tuesday
2232,678.9068679863514
2233,415.93742459728517
5265,82563.76969170138
2,2,10, 2, 0,10, 0.00,60.00,Tuesday
2232,621.1662012865723
2233,392.343623608433
5265,115319.09781222265
2,2,10, 2, 0,11, 0.00,60.00,Tuesday
2232,481.99745934645076
2233,314.9124891696305
5265,121025.86507963711
2,2,10, 2, 0,12, 0.00,60.00,Tuesday
2232,400.35235597274126
2233,266.85641508090898
5265,151861.17695253765
2,2,10, 2, 0,13, 0.00,60.00,Tuesday
2232,385.85553840134966
2233,253.63145499245455
5265,136669.34117165485
2,2,10, 2, 0,14, 0.00,60.00,Tuesday
2232,327.46965496994945
2233,210.42392352406896
5265,154253.42383410608
2,2,10, 2, 0,15, 0.00,60.00,Tuesday
2232,272.31198563688528
2233,171.59494028264883
5265,130426.18854546525
2,2,10, 2, 0,16, 0.00,60.00,Tuesday
2232,191.14438003772873
2233,119.58551408113722
5265,135213.77790070963
2,2,10, 2, 0,17, 0.00,60.00,Tuesday
2232,96.98171360727322
2233,61.20629309046095
5265,111029.81926572095
2,2,10, 2, 0,18, 0.00,60.00,Tuesday
2232,10.943951599643788
2233,6.864364573369955
5265,109442.80950072548
2,2,10, 2, 0,19, 0.00,60.00,Tuesday
2232,0.0
2233,0.0
5265,64257.629846997384
2,2,10, 2, 0,20, 0.00,60.00,Tuesday
2232,0.0
2233,0.0
5265,31289.917712876064
2,2,10, 2, 0,21, 0.00,60.00,Tuesday
2232,0.0
2233,0.0
5265,8631.990493445248
2,2,10, 2, 0,22, 0.00,60.00,Tuesday
2232,0.0
2233,0.0
5265,8386.292650869234
2,2,10, 2, 0,23, 0.00,60.00,Tuesday
2232,0.0
2233,0.0
5265,8335.223156199596
2,2,10, 2, 0,24, 0.00,60.00,Tuesday
2232,0.0
2233,0.0
5265,8295.605639180341
2,3,10, 3, 0, 1, 0.00,60.00,Wednesday
2232,0.0
2233,0.0
5265,8219.10815841262
2,3,10, 3, 0, 2, 0.00,60.00,Wednesday
2232,0.0
2233,0.0
5265,8122.282520187309
2,3,10, 3, 0, 3, 0.00,60.00,Wednesday
2232,0.0
2233,0.0
5265,7992.530025255056
2,3,10, 3, 0, 4, 0.00,60.00,Wednesday
2232,0.0
2233,0.0
5265,7930.962564568536
2,3,10, 3, 0, 5, 0.00,60.00,Wednesday
2232,0.0
2233,0.0
5265,7859.024199148723
2,3,10, 3, 0, 6, 0.00,60.00,Wednesday
2232,41.4728868934472
2233,17.581158974761637
5265,7900.038331615531
2,3,10, 3, 0, 7, 0.00,60.00,Wednesday
2232,257.1200929131344
2233,110.80103335804752
5265,8081.749050242851
2,3,10, 3, 0, 8, 0.00,60.00,Wednesday
2232,354.59127213401879
2233,221.5479398388037
5265,25186.879516356843
2,3,10, 3, 0, 9, 0.00,60.00,Wednesday
2232,498.37855719255398
2233,313.3748947892784
5265,75803.70104676538
2,3,10, 3, 0,10, 0.00,60.00,Wednesday
2232,508.8720637089962
2233,326.17869499361566
5265,112799.53827575244
2,3,10, 3, 0,11, 0.00,60.00,Wednesday
2232,455.9534938560439
2233,299.29816480859406
5265,133466.99861746157
2,3,10, 3, 0,12, 0.00,60.00,Wednesday
2232,400.2227404576815
2233,265.2806902994723
5265,164885.22982251386
2,3,10, 3, 0,13, 0.00,60.00,Wednesday
2232,349.57815650802817
2233,229.51564658441957
5265,155895.84815739288
2,3,10, 3, 0,14, 0.00,60.00,Wednesday
2232,304.7667171760336
2233,196.3349664672384
5265,152953.2584435114
2,3,10, 3, 0,15, 0.00,60.00,Wednesday
2232,281.43460512358998
2233,177.19041454429553
5265,158430.76462878925
2,3,10, 3, 0,16, 0.00,60.00,Wednesday
2232,225.4803906746944
2233,140.63157461657964
5265,123689.40236287425
2,3,10, 3, 0,17, 0.00,60.00,Wednesday
2232,118.49760914303943
2233,73.22165295394693
5265,68641.87615896687
2,3,10, 3, 0,18, 0.00,60.00,Wednesday
2232,14.213642662398178
2233,8.658925166246073
5265,52189.27514080168
2,3,10, 3, 0,19, 0.00,60.00,Wednesday
2232,0.0
2233,0.0
5265,22665.831820035444
2,3,10, 3, 0,20, 0.00,60.00,Wednesday
2232,0.0
2233,0.0
5265,9043.168982406913
2,3,10, 3, 0,21, 0.00,60.00,Wednesday
2232,0.0
2233,0.0
5265,8520.475370207962
2,3,10, 3, 0,22, 0.00,60.00,Wednesday
2232,0.0
2233,0.0
5265,8100.672502758949
2,3,10, 3, 0,23, 0.00,60.00,Wednesday
2232,0.0
2233,0.0
5265,8126.978242122001
2,3,10, 3, 0,24, 0.00,60.00,Wednesday
2232,0.0
2233,0.0
5265,8124.365848511068
2,4,10, 4, 0, 1, 0.00,60.00,Thursday
2232,0.0
2233,0.0
5265,8060.245677732455
2,4,10, 4, 0, 2, 0.00,60.00,Thursday
2232,0.0
2233,0.0
5265,7985.0548774862555
2,4,10, 4, 0, 3, 0.00,60.00,Thursday
2232,0.0
2233,0.0
5265,7924.356628214905
2,4,10, 4, 0, 4, 0.00,60.00,Thursday
2232,0.0
2233,0.0
5265,7909.207559840378
2,4,10, 4, 0, 5, 0.00,60.00,Thursday
2232,0.0
2233,0.0
5265,7907.254894739054
2,4,10, 4, 0, 6, 0.00,60.00,Thursday
2232,56.49432925717054
2233,21.914123723714807
5265,7929.302935569056
2,4,10, 4, 0, 7, 0.00,60.00,Thursday
2232,357.21325888120375
2233,140.79937263910086
5265,8000.980985159746
2,4,10, 4, 0, 8, 0.00,60.00,Thursday
2232,425.61789183032598
2233,265.4672013625905
5265,22700.72155362889
2,4,10, 4, 0, 9, 0.00,60.00,Thursday
2232,515.9215396203191
2233,324.33485161491179
5265,96413.77052733943
2,4,10, 4, 0,10, 0.00,60.00,Thursday
2232,508.3611985079386
2233,325.95004545971099
5265,132216.6008294253
2,4,10, 4, 0,11, 0.00,60.00,Thursday
2232,453.9057783314583
2233,297.9776453454035
5265,157496.03587683265
2,4,10, 4, 0,12, 0.00,60.00,Thursday
2232,413.40611644662678
2233,274.44728876286947
5265,161824.1910705235
2,4,10, 4, 0,13, 0.00,60.00,Thursday
2232,391.09607608891886
2233,257.0784152775686
5265,164422.44411525236
2,4,10, 4, 0,14, 0.00,60.00,Thursday
2232,367.52519262042758
2233,235.85444503286895
5265,176311.94640655805
2,4,10, 4, 0,15, 0.00,60.00,Thursday
2232,332.92161462482189
2233,208.95767695928056
5265,165973.6492244501
2,4,10, 4, 0,16, 0.00,60.00,Thursday
2232,248.0365919589519
2233,153.25501121384293
5265,172266.27029975723
2,4,10, 4, 0,17, 0.00,60.00,Thursday
2232,126.91442962071405
2233,77.65249413480531
5265,160454.3946169028
2,4,10, 4, 0,18, 0.00,60.00,Thursday
2232,16.76411807213805
2233,10.145890547228154
5265,87298.28440074984
2,4,10, 4, 0,19, 0.00,60.00,Thursday
2232,0.0
2233,0.0
5265,62352.45226679617
2,4,10, 4, 0,20, 0.00,60.00,Thursday
2232,0.0
2233,0.0
5265,44481.81365281241
2,4,10, 4, 0,21, 0.00,60.00,Thursday
2232,0.0
2233,0.0
5265,8250.419480336404
2,4,10, 4, 0,22, 0.00,60.00,Thursday
2232,0.0
2233,0.0
5265,8238.360843048538
2,4,10, 4, 0,23, 0.00,60.00,Thursday
2232,0.0
2233,0.0
5265,8235.496406499775
2,4,10, 4, 0,24, 0.00,60.00,Thursday
2232,0.0
2233,0.0
5265,8191.882756048563
2,5,10, 5, 0, 1, 0.00,60.00,Friday
2232,0.0
2233,0.0
5265,8095.206772814917
2,5,10, 5, 0, 2, 0.00,60.00,Friday
2232,0.0
2233,0.0
5265,7996.323249992221
2,5,10, 5, 0, 3, 0.00,60.00,Friday
2232,0.0
2233,0.0
5265,7931.840545747746
2,5,10, 5, 0, 4, 0.00,60.00,Friday
2232,0.0
2233,0.0
5265,7915.329472777436
2,5,10, 5, 0, 5, 0.00,60.00,Friday
2232,0.0
2233,0.0
5265,7907.040288792581
2,5,10, 5, 0, 6, 0.00,60.00,Friday
2232,80.69103754202632
2233,30.568534689105197
5265,7922.972001138162
2,5,10, 5, 0, 7, 0.00,60.00,Friday
2232,525.9904364506061
2233,188.77211603120984
5265,7981.209672108217
2,5,10, 5, 0, 8, 0.00,60.00,Friday
2232,465.72711309597187
2233,289.301964944783
5265,28014.380316179497
2,5,10, 5, 0, 9, 0.00,60.00,Friday
2232,535.8469385722213
2233,335.87425651448867
5265,70319.01216192164
2,5,10, 5, 0,10, 0.00,60.00,Friday
2232,501.4667604603317
2233,321.47112334783716
5265,137594.93103974139
2,5,10, 5, 0,11, 0.00,60.00,Friday
2232,446.06624373175199
2233,292.81007463650209
5265,136158.9478709906
2,5,10, 5, 0,12, 0.00,60.00,Friday
2232,393.46598896323357
2233,262.46451249247579
5265,142519.65220258226
2,5,10, 5, 0,13, 0.00,60.00,Friday
2232,392.9966209056933
2233,258.0972620508954
5265,156296.46167873266
2,5,10, 5, 0,14, 0.00,60.00,Friday
2232,422.41019595470228
2233,268.5905691233044
5265,166606.7512950498
2,5,10, 5, 0,15, 0.00,60.00,Friday
2232,387.75840733872095
2233,239.51882500193833
5265,145363.70663904245
2,5,10, 5, 0,16, 0.00,60.00,Friday
2232,260.8687982734994
2233,159.1323569982439
5265,126677.22159536423
2,5,10, 5, 0,17, 0.00,60.00,Friday
2232,125.47702097794736
2233,76.65735371639771
5265,117316.33943341281
2,5,10, 5, 0,18, 0.00,60.00,Friday
2232,13.799913874091445
2233,8.37573102215499
5265,55630.456451637205
2,5,10, 5, 0,19, 0.00,60.00,Friday
2232,0.0
2233,0.0
5265,29414.28550229617
2,5,10, 5, 0,20, 0.00,60.00,Friday
2232,0.0
2233,0.0
5265,18544.724003834835
2,5,10, 5, 0,21, 0.00,60.00,Friday
2232,0.0
2233,0.0
5265,13414.022135361987
2,5,10, 5, 0,22, 0.00,60.00,Friday
2232,0.0
2233,0.0
5265,8304.737795426134
2,5,10, 5, 0,23, 0.00,60.00,Friday
2232,0.0
2233,0.0
5265,8277.06456427606
2,5,10, 5, 0,24, 0.00,60.00,Friday
2232,0.0
2233,0.0
5265,8254.17180377928
2,6,10, 6, 0, 1, 0.00,60.00,Saturday
2232,0.0
2233,0.0
5265,8229.446580469854
2,6,10, 6, 0, 2, 0.00,60.00,Saturday
2232,0.0
2233,0.0
5265,8214.045773782507
2,6,10, 6, 0, 3, 0.00,60.00,Saturday
2232,0.0
2233,0.0
5265,8188.439434952014
2,6,10, 6, 0, 4, 0.00,60.00,Saturday
2232,0.0
2233,0.0
5265,8167.347067399972
2,6,10, 6, 0, 5, 0.00,60.00,Saturday
2232,0.0
2233,0.0
5265,8150.21143241839
2,6,10, 6, 0, 6, 0.00,60.00,Saturday
2232,35.542687125141558
2233,15.861378131334102
5265,8125.042761609343
2,6,10, 6, 0, 7, 0.00,60.00,Saturday
2232,218.37744689797959
2233,98.82252853469727
5265,8090.025037488941
2,6,10, 6, 0, 8, 0.00,60.00,Saturday
2232,316.0095668929949
2233,197.09168522567428
5265,8086.386202760589
2,6,10, 6, 0, 9, 0.00,60.00,Saturday
2232,479.77916253534496
2233,301.6932768507581
5265,42058.63928884817
2,6,10, 6, 0,10, 0.00,60.00,Saturday
2232,507.706800310003
2233,325.5056003147829
5265,62932.418488514806
2,6,10, 6, 0,11, 0.00,60.00,Saturday
2232,456.56526412634096
2233,299.8429033799517
5265,77404.97701548827
2,6,10, 6, 0,12, 0.00,60.00,Saturday
2232,421.0686578769593
2233,280.1125016961707
5265,71536.0372369414
2,6,10, 6, 0,13, 0.00,60.00,Saturday
2232,397.35250805325946
2233,261.41634586362326
5265,60062.070373200004
2,6,10, 6, 0,14, 0.00,60.00,Saturday
2232,369.2367152111521
2233,236.93833604328527
5265,52687.48998156621
2,6,10, 6, 0,15, 0.00,60.00,Saturday
2232,322.00314100684826
2233,202.16290053605875
5265,52984.187891632704
2,6,10, 6, 0,16, 0.00,60.00,Saturday
2232,235.2764033294391
2233,146.2678904978654
5265,47828.87974616556
2,6,10, 6, 0,17, 0.00,60.00,Saturday
2232,117.93480905971519
2233,72.54251481130008
5265,39151.455718142315
2,6,10, 6, 0,18, 0.00,60.00,Saturday
2232,12.064229324128539
2233,7.346716584374181
5265,35235.72845978663
2,6,10, 6, 0,19, 0.00,60.00,Saturday
2232,0.0
2233,0.0
5265,28441.657712200835
2,6,10, 6, 0,20, 0.00,60.00,Saturday
2232,0.0
2233,0.0
5265,11605.641480478407
2,6,10, 6, 0,21, 0.00,60.00,Saturday
2232,0.0
2233,0.0
5265,11478.671047145292
2,6,10, 6, 0,22, 0.00,60.00,Saturday
2232,0.0
2233,0.0
5265,8658.961778557297
2,6,10, 6, 0,23, 0.00,60.00,Saturday
2232,0.0
2233,0.0
5265,8334.406959672671
2,6,10, 6, 0,24, 0.00,60.00,Saturday
2232,0.0
2233,0.0
5265,8165.173672587091
2,7,10, 7, 0, 1, 0.00,60.00,Sunday
2232,0.0
2233,0.0
5265,8112.772636016136
2,7,10, 7, 0, 2, 0.00,60.00,Sunday
2232,0.0
2233,0.0
5265,8091.682416000374
2,7,10, 7, 0, 3, 0.00,60.00,Sunday
2232,0.0
2233,0.0
5265,8063.982757300689
2,7,10, 7, 0, 4, 0.00,60.00,Sunday
2232,0.0
2233,0.0
5265,8020.335031423824
2,7,10, 7, 0, 5, 0.00,60.00,Sunday
2232,0.0
2233,0.0
5265,7973.107022768568
2,7,10, 7, 0, 6, 0.00,60.00,Sunday
2232,37.656930657975859
2233,16.320757070982695
5265,7953.679509726105
2,7,10, 7, 0, 7, 0.00,60.00,Sunday
2232,237.45311545439044
2233,105.17889167161479
5265,7998.8555598905805
2,7,10, 7, 0, 8, 0.00,60.00,Sunday
2232,346.1235093798285
2233,216.2707082847916
5265,8087.067408108924
2,7,10, 7, 0, 9, 0.00,60.00,Sunday
2232,456.10318942709747
2233,286.8011542347129
5265,8195.043180531668
2,7,10, 7, 0,10, 0.00,60.00,Sunday
2232,466.0091326059008
2233,298.7292789763295
5265,8298.517559930124
2,7,10, 7, 0,11, 0.00,60.00,Sunday
2232,425.12777641907788
2233,278.67745769228329
5265,8361.44565579733
2,7,10, 7, 0,12, 0.00,60.00,Sunday
2232,384.1381645956116
2233,254.36041611167966
5265,8363.0916942529
2,7,10, 7, 0,13, 0.00,60.00,Sunday
2232,364.0002884157475
2233,238.93643384962705
5265,8304.506965285342
2,7,10, 7, 0,14, 0.00,60.00,Sunday
2232,338.26877753415848
2233,217.11903170916086
5265,8242.368082581888
2,7,10, 7, 0,15, 0.00,60.00,Sunday
2232,306.71031813397686
2233,192.77274372596788
5265,8227.590721096263
2,7,10, 7, 0,16, 0.00,60.00,Sunday
2232,226.88416439026924
2233,141.32663154594446
5265,8282.874299464771
2,7,10, 7, 0,17, 0.00,60.00,Sunday
2232,113.80836640081627
2233,70.24789943161001
5265,8346.15362769769
2,7,10, 7, 0,18, 0.00,60.00,Sunday
2232,11.631250846235093
2233,7.098127183585061
5265,8381.194342424771
2,7,10, 7, 0,19, 0.00,60.00,Sunday
2232,0.0
2233,0.0
5265,8346.99225221711
2,7,10, 7, 0,20, 0.00,60.00,Sunday
2232,0.0
2233,0.0
5265,8292.675426814672
2,7,10, 7, 0,21, 0.00,60.00,Sunday
2232,0.0
2233,0.0
5265,8241.201722862339
2,7,10, 7, 0,22, 0.00,60.00,Sunday
2232,0.0
2233,0.0
5265,8182.7270854134185
2,7,10, 7, 0,23, 0.00,60.00,Sunday
2232,0.0
2233,0.0
5265,8116.935100490799
2,7,10, 7, 0,24, 0.00,60.00,Sunday
2232,0.0
2233,0.0
5265,8073.460083694924
2,8,10, 8, 0, 1, 0.00,60.00,Monday
2232,0.0
2233,0.0
5265,7700.771571592064
2,8,10, 8, 0, 2, 0.00,60.00,Monday
2232,0.0
2233,0.0
5265,7745.2120279901255
2,8,10, 8, 0, 3, 0.00,60.00,Monday
2232,0.0
2233,0.0
5265,7692.45577994639
2,8,10, 8, 0, 4, 0.00,60.00,Monday
2232,0.0
2233,0.0
5265,7618.318361693061
2,8,10, 8, 0, 5, 0.00,60.00,Monday
2232,0.0
2233,0.0
5265,7550.809123135042
2,8,10, 8, 0, 6, 0.00,60.00,Monday
2232,41.36661366923244
2233,17.452961136493156
5265,7497.418424476993
2,8,10, 8, 0, 7, 0.00,60.00,Monday
2232,249.4685038752767
2233,107.19534800082674
5265,7473.771178989881
2,8,10, 8, 0, 8, 0.00,60.00,Monday
2232,323.05368657182665
2233,201.76506617435053
5265,29277.84489993137
2,8,10, 8, 0, 9, 0.00,60.00,Monday
2232,446.57864927283046
2233,280.87731058432578
5265,60368.1993224339
2,8,10, 8, 0,10, 0.00,60.00,Monday
2232,468.3528985670836
2233,300.24525616474269
5265,88311.49903127004
2,8,10, 8, 0,11, 0.00,60.00,Monday
2232,433.6847218765967
2233,284.45503179369379
5265,90520.99822065437
2,8,10, 8, 0,12, 0.00,60.00,Monday
2232,387.34743035146905
2233,256.5577577384735
5265,129792.12710571669
2,8,10, 8, 0,13, 0.00,60.00,Monday
2232,348.11292757612258
2233,228.52282730246268
5265,132443.53446067879
2,8,10, 8, 0,14, 0.00,60.00,Monday
2232,295.6434006782624
2233,190.55609324791645
5265,165532.98591288634
2,8,10, 8, 0,15, 0.00,60.00,Monday
2232,239.8594445501294
2233,151.8935131613146
5265,174822.41050804684
2,8,10, 8, 0,16, 0.00,60.00,Monday
2232,167.25726678094984
2233,105.1302750732063
5265,156185.77010739383
2,8,10, 8, 0,17, 0.00,60.00,Monday
2232,80.56664916990916
2233,51.028401116179349
5265,135130.91527428138
2,8,10, 8, 0,18, 0.00,60.00,Monday
2232,8.319539253775482
2233,5.238004299151481
5265,52373.42386057368
2,8,10, 8, 0,19, 0.00,60.00,Monday
2232,0.0
2233,0.0
5265,25742.620692718116
2,8,10, 8, 0,20, 0.00,60.00,Monday
2232,0.0
2233,0.0
5265,10856.941107659915
2,8,10, 8, 0,21, 0.00,60.00,Monday
2232,0.0
2233,0.0
5265,8428.072593938568
2,8,10, 8, 0,22, 0.00,60.00,Monday
2232,0.0
2233,0.0
5265,7979.515682895842
2,8,10, 8, 0,23, 0.00,60.00,Monday
2232,0.0
2233,0.0
5265,7943.407181090675
2,8,10, 8, 0,24, 0.00,60.00,Monday
2232,0.0
2233,0.0
5265,7915.20958800906
2,9,10, 9, 0, 1, 0.00,60.00,Tuesday
2232,0.0
2233,0.0
5265,7120.5915495956
2,9,10, 9, 0, 2, 0.00,60.00,Tuesday
2232,0.0
2233,0.0
5265,7209.060658572204
2,9,10, 9, 0, 3, 0.00,60.00,Tuesday
2232,0.0
2233,0.0
5265,7156.0524311713125
2,9,10, 9, 0, 4, 0.00,60.00,Tuesday
2232,0.0
2233,0.0
5265,7082.27549654003
2,9,10, 9, 0, 5, 0.00,60.00,Tuesday
2232,0.0
2233,0.0
5265,7004.165349128461
2,9,10, 9, 0, 6, 0.00,60.00,Tuesday
2232,79.841393782514
2233,30.586199670860464
5265,7131.557591274628
2,9,10, 9, 0, 7, 0.00,60.00,Tuesday
2232,543.1352023153526
2233,196.94834418160358
5265,7521.2229145925885
2,9,10, 9, 0, 8, 0.00,60.00,Tuesday
2232,557.3855560597395
2233,338.13916048392789
5265,20824.87459793616
2,9,10, 9, 0, 9, 0.00,60.00,Tuesday
2232,652.8109864876086
2233,403.0340437225121
5265,73756.13269972452
2,9,10, 9, 0,10, 0.00,60.00,Tuesday
2232,608.5867937667439
2233,385.08580772861566
5265,105930.40578041096
2,9,10, 9, 0,11, 0.00,60.00,Tuesday
2232,497.20790235623016
2233,324.532265033396
5265,114656.41314901097
2,9,10, 9, 0,12, 0.00,60.00,Tuesday
2232,422.13610741746677
2233,281.137292334497
5265,152615.40390270897
2,9,10, 9, 0,13, 0.00,60.00,Tuesday
2232,417.3772246768958
2233,274.209211305403
5265,144445.8509896216
2,9,10, 9, 0,14, 0.00,60.00,Tuesday
2232,420.1084186973169
2233,267.33191207584209
5265,168170.7957751843
2,9,10, 9, 0,15, 0.00,60.00,Tuesday
2232,353.34820135800177
2233,218.50966730496348
5265,147194.30467866807
2,9,10, 9, 0,16, 0.00,60.00,Tuesday
2232,237.33802456894274
2233,146.833803201913
5265,149761.6536268493
2,9,10, 9, 0,17, 0.00,60.00,Tuesday
2232,98.43292330680579
2233,61.64548142192402
5265,125507.83279368289
2,9,10, 9, 0,18, 0.00,60.00,Tuesday
2232,9.29648822858505
2233,5.790261116991615
5265,111275.59807797359
2,9,10, 9, 0,19, 0.00,60.00,Tuesday
2232,0.0
2233,0.0
5265,66395.64673134801
2,9,10, 9, 0,20, 0.00,60.00,Tuesday
2232,0.0
2233,0.0
5265,32350.15317562237
2,9,10, 9, 0,21, 0.00,60.00,Tuesday
2232,0.0
2233,0.0
5265,8656.830151107755
2,9,10, 9, 0,22, 0.00,60.00,Tuesday
2232,0.0
2233,0.0
5265,8394.976009909158
2,9,10, 9, 0,23, 0.00,60.00,Tuesday
2232,0.0
2233,0.0
5265,8304.569351438606
2,9,10, 9, 0,24, 0.00,60.00,Tuesday
2232,0.0
2233,0.0
5265,8258.633443928307
2,10,10,10, 0, 1, 0.00,60.00,Wednesday
2232,0.0
2233,0.0
5265,8229.035587689104
2,10,10,10, 0, 2, 0.00,60.00,Wednesday
2232,0.0
2233,0.0
5265,8203.793163465934
2,10,10,10, 0, 3, 0.00,60.00,Wednesday
2232,0.0
2233,0.0
5265,8174.521310340281
2,10,10,10, 0, 4, 0.00,60.00,Wednesday
2232,0.0
2233,0.0
5265,8125.456259642415
2,10,10,10, 0, 5, 0.00,60.00,Wednesday
2232,0.0
2233,0.0
5265,8006.01816211523
2,10,10,10, 0, 6, 0.00,60.00,Wednesday
2232,42.61061857877062
2233,18.03049314882273
5265,8027.041098091223
2,10,10,10, 0, 7, 0.00,60.00,Wednesday
2232,252.88579790850432
2233,108.76811327655942
5265,8195.323882729324
2,10,10,10, 0, 8, 0.00,60.00,Wednesday
2232,316.8498480113067
2233,197.56246348174333
5265,25401.093808891106
2,10,10,10, 0, 9, 0.00,60.00,Wednesday
2232,479.481152442284
2233,301.4113022191131
5265,81059.40467789503
2,10,10,10, 0,10, 0.00,60.00,Wednesday
2232,504.4208192818938
2233,323.3585441754104
5265,113668.28831425817
2,10,10,10, 0,11, 0.00,60.00,Wednesday
2232,448.313980700008
2233,294.5585687441487
5265,135718.55638765024
2,10,10,10, 0,12, 0.00,60.00,Wednesday
2232,363.499044764975
2233,243.05667891970723
5265,171932.80738964678
2,10,10,10, 0,13, 0.00,60.00,Wednesday
2232,391.38604597261635
2233,256.95565636095867
5265,172176.8923566023
2,10,10,10, 0,14, 0.00,60.00,Wednesday
2232,411.81893259855527
2233,261.6397968019872
5265,172376.13604443617
2,10,10,10, 0,15, 0.00,60.00,Wednesday
2232,385.37368910727698
2233,238.19725575091287
5265,178799.15024260965
2,10,10,10, 0,16, 0.00,60.00,Wednesday
2232,293.33779458669297
2233,178.56762456449557
5265,145204.01779587699
2,10,10,10, 0,17, 0.00,60.00,Wednesday
2232,151.42645959632788
2233,91.61457414963813
5265,83762.77910763545
2,10,10,10, 0,18, 0.00,60.00,Wednesday
2232,15.984540795621255
2233,9.540099359398575
5265,52929.779003129224
2,10,10,10, 0,19, 0.00,60.00,Wednesday
2232,0.0
2233,0.0
5265,23338.911972433027
2,10,10,10, 0,20, 0.00,60.00,Wednesday
2232,0.0
2233,0.0
5265,9365.682073321525
2,10,10,10, 0,21, 0.00,60.00,Wednesday
2232,0.0
2233,0.0
5265,8908.760575751769
2,10,10,10, 0,22, 0.00,60.00,Wednesday
2232,0.0
2233,0.0
5265,8464.123618059764
2,10,10,10, 0,23, 0.00,60.00,Wednesday
2232,0.0
2233,0.0
5265,8432.466512968485
2,10,10,10, 0,24, 0.00,60.00,Wednesday
2232,0.0
2233,0.0
5265,8395.131578654298
2,11,10,11, 0, 1, 0.00,60.00,Thursday
2232,0.0
2233,0.0
5265,8344.516751920219
2,11,10,11, 0, 2, 0.00,60.00,Thursday
2232,0.0
2233,0.0
5265,8283.973074893398
2,11,10,11, 0, 3, 0.00,60.00,Thursday
2232,0.0
2233,0.0
5265,8244.031929203144
2,11,10,11, 0, 4, 0.00,60.00,Thursday
2232,0.0
2233,0.0
5265,8217.444576781325
2,11,10,11, 0, 5, 0.00,60.00,Thursday
2232,0.0
2233,0.0
5265,8191.053849850247
2,11,10,11, 0, 6, 0.00,60.00,Thursday
2232,49.75677737506381
2233,20.212406727747106
5265,8212.638669889111
2,11,10,11, 0, 7, 0.00,60.00,Thursday
2232,301.17078015368579
2233,124.77578538956728
5265,8318.639162268935
2,11,10,11, 0, 8, 0.00,60.00,Thursday
2232,360.22661508011137
2233,225.04655569798948
5265,23844.941872967025
2,11,10,11, 0, 9, 0.00,60.00,Thursday
2232,460.63041767660936
2233,289.5418930506664
5265,114448.10334656855
2,11,10,11, 0,10, 0.00,60.00,Thursday
2232,468.71348348621788
2233,300.3975564588955
5265,148920.25597647075
2,11,10,11, 0,11, 0.00,60.00,Thursday
2232,435.02574846174977
2233,285.2417809600011
5265,167482.7937966199
2,11,10,11, 0,12, 0.00,60.00,Thursday
2232,410.47341852369785
2233,272.44915516575795
5265,169462.73784741466
2,11,10,11, 0,13, 0.00,60.00,Thursday
2232,395.65916365501337
2233,260.36618382867558
5265,172214.68894950144
2,11,10,11, 0,14, 0.00,60.00,Thursday
2232,376.14378730652
2233,241.10263790304075
5265,184391.56150986497
2,11,10,11, 0,15, 0.00,60.00,Thursday
2232,328.7462021283166
2233,206.33627592594415
5265,180401.53275720255
2,11,10,11, 0,16, 0.00,60.00,Thursday
2232,232.69446939158605
2233,144.34149374455658
5265,182044.1450029692
2,11,10,11, 0,17, 0.00,60.00,Thursday
2232,111.00257681636198
2233,68.30952491771503
5265,168454.46572894808
2,11,10,11, 0,18, 0.00,60.00,Thursday
2232,11.306171701328461
2233,6.892578819429776
5265,88505.85203977418
2,11,10,11, 0,19, 0.00,60.00,Thursday
2232,0.0
2233,0.0
5265,63660.93665239619
2,11,10,11, 0,20, 0.00,60.00,Thursday
2232,0.0
2233,0.0
5265,45720.00231697888
2,11,10,11, 0,21, 0.00,60.00,Thursday
2232,0.0
2233,0.0
5265,8469.398074218532
2,11,10,11, 0,22, 0.00,60.00,Thursday
2232,0.0
2233,0.0
5265,8423.894726082908
2,11,10,11, 0,23, 0.00,60.00,Thursday
2232,0.0
2233,0.0
5265,8382.4263712918
2,11,10,11, 0,24, 0.00,60.00,Thursday
2232,0.0
2233,0.0
5265,8335.936121752626
2,12,10,12, 0, 1, 0.00,60.00,Friday
2232,0.0
2233,0.0
5265,8264.511717651383
2,12,10,12, 0, 2, 0.00,60.00,Friday
2232,0.0
2233,0.0
5265,8186.135222060075
2,12,10,12, 0, 3, 0.00,60.00,Friday
2232,0.0
2233,0.0
5265,8152.346726304557
2,12,10,12, 0, 4, 0.00,60.00,Friday
2232,0.0
2233,0.0
5265,8188.770379961229
2,12,10,12, 0, 5, 0.00,60.00,Friday
2232,0.0
2233,0.0
5265,8226.176591605361
2,12,10,12, 0, 6, 0.00,60.00,Friday
2232,46.629641392294768
2233,19.240314988142015
5265,8260.891523403945
2,12,10,12, 0, 7, 0.00,60.00,Friday
2232,291.4886670437944
2233,122.06561560073455
5265,8331.120137556709
2,12,10,12, 0, 8, 0.00,60.00,Friday
2232,368.19938303214988
2233,230.24502028186076
5265,29224.685340325046
2,12,10,12, 0, 9, 0.00,60.00,Friday
2232,474.8584384315165
2233,298.47714804801998
5265,92036.87287683533
2,12,10,12, 0,10, 0.00,60.00,Friday
2232,481.13514759727999
2233,308.31679217106218
5265,150659.9590590146
2,12,10,12, 0,11, 0.00,60.00,Friday
2232,439.26933842307695
2233,288.1316552554989
5265,149064.83924245466
2,12,10,12, 0,12, 0.00,60.00,Friday
2232,403.42307503481558
2233,267.5812773600088
5265,151911.01684419963
2,12,10,12, 0,13, 0.00,60.00,Friday
2232,381.1795701217348
2233,250.44075991069597
5265,161246.28561322523
2,12,10,12, 0,14, 0.00,60.00,Friday
2232,358.73849826865657
2233,230.21978903803655
5265,168624.99140850086
2,12,10,12, 0,15, 0.00,60.00,Friday
2232,312.178039060743
2233,196.055447667584
5265,148984.69100767835
2,12,10,12, 0,16, 0.00,60.00,Friday
2232,225.20275194679804
2233,140.16375777508044
5265,131967.6763847257
2,12,10,12, 0,17, 0.00,60.00,Friday
2232,105.23539676899019
2233,65.1391514831556
5265,122254.06469989226
2,12,10,12, 0,18, 0.00,60.00,Friday
2232,10.424473711199573
2233,6.3828757694320219
5265,56022.65632710729
2,12,10,12, 0,19, 0.00,60.00,Friday
2232,0.0
2233,0.0
5265,29689.97272809756
2,12,10,12, 0,20, 0.00,60.00,Friday
2232,0.0
2233,0.0
5265,18675.157824689173
2,12,10,12, 0,21, 0.00,60.00,Friday
2232,0.0
2233,0.0
5265,13467.812602408218
2,12,10,12, 0,22, 0.00,60.00,Friday
2232,0.0
2233,0.0
5265,8283.892801662207
2,12,10,12, 0,23, 0.00,60.00,Friday
2232,0.0
2233,0.0
5265,8186.292397688251
2,12,10,12, 0,24, 0.00,60.00,Friday
2232,0.0
2233,0.0
5265,8118.627805074569
2,13,10,13, 0, 1, 0.00,60.00,Saturday
2232,0.0
2233,0.0
5265,8108.414351134211
2,13,10,13, 0, 2, 0.00,60.00,Saturday
2232,0.0
2233,0.0
5265,8111.490549122773
2,13,10,13, 0, 3, 0.00,60.00,Saturday
2232,0.0
2233,0.0
5265,8114.530081733615
2,13,10,13, 0, 4, 0.00,60.00,Saturday
2232,0.0
2233,0.0
5265,8108.593200076921
2,13,10,13, 0, 5, 0.00,60.00,Saturday
2232,0.0
2233,0.0
5265,8102.801054807721
2,13,10,13, 0, 6, 0.00,60.00,Saturday
2232,49.8536763648623
2233,20.19118703472908
5265,8132.4947235813825
2,13,10,13, 0, 7, 0.00,60.00,Saturday
2232,301.1735710735699
2233,124.49134603949364
5265,8241.252406074957
2,13,10,13, 0, 8, 0.00,60.00,Saturday
2232,360.55613162652329
2233,225.3029644816044
5265,8386.178892149743
2,13,10,13, 0, 9, 0.00,60.00,Saturday
2232,473.06818381484558
2233,297.34693008058579
5265,58373.32596806306
2,13,10,13, 0,10, 0.00,60.00,Saturday
2232,484.70223694948779
2233,310.5971102318662
5265,82976.19788644194
2,13,10,13, 0,11, 0.00,60.00,Saturday
2232,442.48246295731266
2233,290.3018100420175
5265,93944.89571905507
2,13,10,13, 0,12, 0.00,60.00,Saturday
2232,408.080485813626
2233,270.9546085740485
5265,84461.18877005419
2,13,10,13, 0,13, 0.00,60.00,Saturday
2232,389.6900632530158
2233,256.3061281001161
5265,64054.98782280532
2,13,10,13, 0,14, 0.00,60.00,Saturday
2232,371.8297773437186
2233,238.67114555929724
5265,57461.95577778094
2,13,10,13, 0,15, 0.00,60.00,Saturday
2232,322.79268601657119
2233,202.61558298945614
5265,57597.390666200845
2,13,10,13, 0,16, 0.00,60.00,Saturday
2232,231.5843453246555
2233,143.48270248442115
5265,51791.22756704006
2,13,10,13, 0,17, 0.00,60.00,Saturday
2232,107.8496898533674
2233,66.45517391814508
5265,42198.67781425165
2,13,10,13, 0,18, 0.00,60.00,Saturday
2232,10.696705013493118
2233,6.523178719810776
5265,36060.23411647522
2,13,10,13, 0,19, 0.00,60.00,Saturday
2232,0.0
2233,0.0
5265,28645.982240586793
2,13,10,13, 0,20, 0.00,60.00,Saturday
2232,0.0
2233,0.0
5265,12673.554153552186
2,13,10,13, 0,21, 0.00,60.00,Saturday
2232,0.0
2233,0.0
5265,12506.713688496066
2,13,10,13, 0,22, 0.00,60.00,Saturday
2232,0.0
2233,0.0
5265,8685.216597772394
2,13,10,13, 0,23, 0.00,60.00,Saturday
2232,0.0
2233,0.0
5265,8440.739820521716