Program Version,EnergyPlus, Version 8.7.0-78a111df4a, YMD=2019.11.22 13:31
1,5,Environment Title[],Latitude[deg],Longitude[deg],Time Zone[],Elevation[m]
2,6,Day of Simulation[],Month[],Day of Month[],DST Indicator[1=yes 0=no],Hour[],StartMinute[],EndMinute[],DayType
3,3,Cumulative Day of Simulation[],Month[],Day of Month[],DST Indicator[1=yes 0=no],DayType  ! When Daily Report Variables Requested
4,2,Cumulative Days of Simulation[],Month[]  ! When Monthly Report Variables Requested
5,1,Cumulative Days of Simulation[] ! When Run Period Report Variables Requested
2232,1,AF305DAYLIGHINGCONTROL,Daylighting Reference Point 1 Illuminance [lux] !Hourly
2233,1,AF305DAYLIGHINGCONTROL,Daylighting Reference Point 2 Illuminance [lux] !Hourly
5265,1,Whole Building,Facility Total Electric Demand Power [W] !Hourly
End of Data Dictionary
1,RUNPERIOD,  10.30, 123.97,   8.00,  24.00
2,1,10, 1, 0, 1, 0.00,60.00,Monday
2232,0.0
2233,0.0
5265,7963.017272001282
2,1,10, 1, 0, 2, 0.00,60.00,Monday
2232,0.0
2233,0.0
5265,7877.944968411619
2,1,10, 1, 0, 3, 0.00,60.00,Monday
2232,0.0
2233,0.0
5265,7740.801417253136
2,1,10, 1, 0, 4, 0.00,60.00,Monday
2232,0.0
2233,0.0
5265,7672.267153196008
2,1,10, 1, 0, 5, 0.00,60.00,Monday
2232,0.0
2233,0.0
5265,7608.173297778648
2,1,10, 1, 0, 6, 0.00,60.00,Monday
2232,162.0490528756915
2233,58.61431165560293
5265,7667.6595646182
2,1,10, 1, 0, 7, 0.00,60.00,Monday
2232,1103.1854263466341
2233,352.7980862134207
5265,7805.949225552012
2,1,10, 1, 0, 8, 0.00,60.00,Monday
2232,890.8446917364481
2233,536.2991950945249
5265,29706.342257138924
2,1,10, 1, 0, 9, 0.00,60.00,Monday
2232,999.2991426373281
2233,618.1978560444545
5265,61874.24681707583
2,1,10, 1, 0,10, 0.00,60.00,Monday
2232,926.1749936875849
2233,589.2806674116258
5265,96309.80478936382
2,1,10, 1, 0,11, 0.00,60.00,Monday
2232,754.1579070265385
2233,495.32635620687
5265,98030.95370563143
2,1,10, 1, 0,12, 0.00,60.00,Monday
2232,591.5649856692506
2233,397.26176001089535
5265,141694.39927415169
2,1,10, 1, 0,13, 0.00,60.00,Monday
2232,583.4940631735138
2233,386.6904975037189
5265,145111.92594510859
2,1,10, 1, 0,14, 0.00,60.00,Monday
2232,562.4608492994654
2233,363.26136676233616
5265,170382.44821892796
2,1,10, 1, 0,15, 0.00,60.00,Monday
2232,442.25021558578347
2233,279.843971582009
5265,177616.67556937345
2,1,10, 1, 0,16, 0.00,60.00,Monday
2232,289.7314389459266
2233,182.43306391900584
5265,158774.61786176565
2,1,10, 1, 0,17, 0.00,60.00,Monday
2232,117.95267140510818
2233,75.27845851550346
5265,137267.5701978904
2,1,10, 1, 0,18, 0.00,60.00,Monday
2232,13.383687726811877
2233,8.531857343355736
5265,52789.03110526993
2,1,10, 1, 0,19, 0.00,60.00,Monday
2232,0.0
2233,0.0
5265,26000.55588710556
2,1,10, 1, 0,20, 0.00,60.00,Monday
2232,0.0
2233,0.0
5265,10994.510620013816
2,1,10, 1, 0,21, 0.00,60.00,Monday
2232,0.0
2233,0.0
5265,8577.829551667242
2,1,10, 1, 0,22, 0.00,60.00,Monday
2232,0.0
2233,0.0
5265,8150.59601330973
2,1,10, 1, 0,23, 0.00,60.00,Monday
2232,0.0
2233,0.0
5265,8136.9201480324655
2,1,10, 1, 0,24, 0.00,60.00,Monday
2232,0.0
2233,0.0
5265,8119.429471205141
2,2,10, 2, 0, 1, 0.00,60.00,Tuesday
2232,0.0
2233,0.0
5265,7871.989536985077
2,2,10, 2, 0, 2, 0.00,60.00,Tuesday
2232,0.0
2233,0.0
5265,7779.889530858968
2,2,10, 2, 0, 3, 0.00,60.00,Tuesday
2232,0.0
2233,0.0
5265,7669.911163300875
2,2,10, 2, 0, 4, 0.00,60.00,Tuesday
2232,0.0
2233,0.0
5265,7553.677197479301
2,2,10, 2, 0, 5, 0.00,60.00,Tuesday
2232,0.0
2233,0.0
5265,7426.659325282028
2,2,10, 2, 0, 6, 0.00,60.00,Tuesday
2232,162.93595397240379
2233,59.75429546127853
5265,7538.586049274793
2,2,10, 2, 0, 7, 0.00,60.00,Tuesday
2232,1120.4536547518999
2233,362.25296938272597
5265,7974.399664843698
2,2,10, 2, 0, 8, 0.00,60.00,Tuesday
2232,941.7291954312581
2233,559.209953621787
5265,21087.60269106644
2,2,10, 2, 0, 9, 0.00,60.00,Tuesday
2232,1032.205565479578
2233,636.3329828234631
5265,82563.76969170138
2,2,10, 2, 0,10, 0.00,60.00,Tuesday
2232,944.6526699722508
2233,600.2063429633016
5265,115319.09781222265
2,2,10, 2, 0,11, 0.00,60.00,Tuesday
2232,733.4525167907932
2233,481.9420311659451
5265,121025.86507963711
2,2,10, 2, 0,12, 0.00,60.00,Tuesday
2232,609.402591363532
2233,408.4656324262851
5265,151861.17695253765
2,2,10, 2, 0,13, 0.00,60.00,Tuesday
2232,587.1452106591149
2233,388.12973720297097
5265,136669.34117165485
2,2,10, 2, 0,14, 0.00,60.00,Tuesday
2232,498.1632120146633
2233,321.9888227237121
5265,154253.42383410608
2,2,10, 2, 0,15, 0.00,60.00,Tuesday
2232,414.1542195255329
2233,262.5539527855467
5265,130426.18854546525
2,2,10, 2, 0,16, 0.00,60.00,Tuesday
2232,290.6448893213776
2233,182.935027598014
5265,135213.77790070963
2,2,10, 2, 0,17, 0.00,60.00,Tuesday
2232,147.44861630253514
2233,93.60233183117738
5265,111029.81926572095
2,2,10, 2, 0,18, 0.00,60.00,Tuesday
2232,16.636208264165107
2233,10.49592442542859
5265,109442.80950072548
2,2,10, 2, 0,19, 0.00,60.00,Tuesday
2232,0.0
2233,0.0
5265,64257.629846997384
2,2,10, 2, 0,20, 0.00,60.00,Tuesday
2232,0.0
2233,0.0
5265,31289.917712876064
2,2,10, 2, 0,21, 0.00,60.00,Tuesday
2232,0.0
2233,0.0
5265,8631.990493445248
2,2,10, 2, 0,22, 0.00,60.00,Tuesday
2232,0.0
2233,0.0
5265,8386.292650869234
2,2,10, 2, 0,23, 0.00,60.00,Tuesday
2232,0.0
2233,0.0
5265,8335.223156199596
2,2,10, 2, 0,24, 0.00,60.00,Tuesday
2232,0.0
2233,0.0
5265,8295.605639180341
2,3,10, 3, 0, 1, 0.00,60.00,Wednesday
2232,0.0
2233,0.0
5265,8219.10815841262
2,3,10, 3, 0, 2, 0.00,60.00,Wednesday
2232,0.0
2233,0.0
5265,8122.282520187309
2,3,10, 3, 0, 3, 0.00,60.00,Wednesday
2232,0.0
2233,0.0
5265,7992.530025255056
2,3,10, 3, 0, 4, 0.00,60.00,Wednesday
2232,0.0
2233,0.0
5265,7930.962564568536
2,3,10, 3, 0, 5, 0.00,60.00,Wednesday
2232,0.0
2233,0.0
5265,7859.024199148723
2,3,10, 3, 0, 6, 0.00,60.00,Wednesday
2232,62.87002148505163
2233,26.93115209784551
5265,7900.038331615531
2,3,10, 3, 0, 7, 0.00,60.00,Wednesday
2232,389.9188649646688
2233,169.82175005227036
5265,8081.749050242851
2,3,10, 3, 0, 8, 0.00,60.00,Wednesday
2232,539.0543805349595
2233,338.7975340841919
5265,25186.879516356843
2,3,10, 3, 0, 9, 0.00,60.00,Wednesday
2232,757.6593652857044
2233,479.19567649745087
5265,75803.70104676538
2,3,10, 3, 0,10, 0.00,60.00,Wednesday
2232,773.8484982483479
2233,498.86777695860476
5265,112799.53827575244
2,3,10, 3, 0,11, 0.00,60.00,Wednesday
2232,693.6614001725271
2233,457.87645127604068
5265,133466.99861746157
2,3,10, 3, 0,12, 0.00,60.00,Wednesday
2232,608.9754534978141
2233,405.8762502862717
5265,164885.22982251386
2,3,10, 3, 0,13, 0.00,60.00,Wednesday
2232,531.8574518893089
2233,351.1524021337221
5265,155895.84815739288
2,3,10, 3, 0,14, 0.00,60.00,Wednesday
2232,463.600048198926
2233,300.39492577573057
5265,152953.2584435114
2,3,10, 3, 0,15, 0.00,60.00,Wednesday
2232,428.03488925281109
2233,271.12464807430907
5265,158430.76462878925
2,3,10, 3, 0,16, 0.00,60.00,Wednesday
2232,342.867998866408
2233,215.15190188865305
5265,123689.40236287425
2,3,10, 3, 0,17, 0.00,60.00,Wednesday
2232,180.1433940232633
2233,111.99309541614076
5265,68641.87615896687
2,3,10, 3, 0,18, 0.00,60.00,Wednesday
2232,21.600811137592975
2233,13.239565923524808
5265,52189.27514080168
2,3,10, 3, 0,19, 0.00,60.00,Wednesday
2232,0.0
2233,0.0
5265,22665.831820035444
2,3,10, 3, 0,20, 0.00,60.00,Wednesday
2232,0.0
2233,0.0
5265,9043.168982406913
2,3,10, 3, 0,21, 0.00,60.00,Wednesday
2232,0.0
2233,0.0
5265,8520.475370207962
2,3,10, 3, 0,22, 0.00,60.00,Wednesday
2232,0.0
2233,0.0
5265,8100.672502758949
2,3,10, 3, 0,23, 0.00,60.00,Wednesday
2232,0.0
2233,0.0
5265,8126.978242122001
2,3,10, 3, 0,24, 0.00,60.00,Wednesday
2232,0.0
2233,0.0
5265,8124.365848511068
2,4,10, 4, 0, 1, 0.00,60.00,Thursday
2232,0.0
2233,0.0
5265,8060.245677732455
2,4,10, 4, 0, 2, 0.00,60.00,Thursday
2232,0.0
2233,0.0
5265,7985.0548774862555
2,4,10, 4, 0, 3, 0.00,60.00,Thursday
2232,0.0
2233,0.0
5265,7924.356628214905
2,4,10, 4, 0, 4, 0.00,60.00,Thursday
2232,0.0
2233,0.0
5265,7909.207559840378
2,4,10, 4, 0, 5, 0.00,60.00,Thursday
2232,0.0
2233,0.0
5265,7907.254894739054
2,4,10, 4, 0, 6, 0.00,60.00,Thursday
2232,85.60869525330789
2233,33.592052288208609
5265,7929.302935569056
2,4,10, 4, 0, 7, 0.00,60.00,Thursday
2232,541.4928516354854
2233,215.97562277088174
5265,8000.980985159746
2,4,10, 4, 0, 8, 0.00,60.00,Thursday
2232,647.133765658627
2233,406.0681833136235
5265,22700.72155362889
2,4,10, 4, 0, 9, 0.00,60.00,Thursday
2232,784.3549497119284
2233,495.98064378626278
5265,96413.77052733943
2,4,10, 4, 0,10, 0.00,60.00,Thursday
2232,773.0817017541261
2233,498.525512500385
5265,132216.6008294253
2,4,10, 4, 0,11, 0.00,60.00,Thursday
2232,690.5482204487921
2233,455.85769446429966
5265,157496.03587683265
2,4,10, 4, 0,12, 0.00,60.00,Thursday
2232,629.0880059810552
2233,419.94056197250208
5265,161824.1910705235
2,4,10, 4, 0,13, 0.00,60.00,Thursday
2232,595.1367327245608
2233,393.42045272113986
5265,164422.44411525236
2,4,10, 4, 0,14, 0.00,60.00,Thursday
2232,559.1565378301804
2233,360.96391220150789
5265,176311.94640655805
2,4,10, 4, 0,15, 0.00,60.00,Thursday
2232,506.3941154159907
2233,319.79587708849268
5265,165973.6492244501
2,4,10, 4, 0,16, 0.00,60.00,Thursday
2232,377.17632692394
2233,234.50378129156187
5265,172266.27029975723
2,4,10, 4, 0,17, 0.00,60.00,Thursday
2232,192.9304214873042
2233,118.77800393139633
5265,160454.3946169028
2,4,10, 4, 0,18, 0.00,60.00,Thursday
2232,25.47394294295445
2233,15.511628033791455
5265,87298.28440074984
2,4,10, 4, 0,19, 0.00,60.00,Thursday
2232,0.0
2233,0.0
5265,62352.45226679617
2,4,10, 4, 0,20, 0.00,60.00,Thursday
2232,0.0
2233,0.0
5265,44481.81365281241
2,4,10, 4, 0,21, 0.00,60.00,Thursday
2232,0.0
2233,0.0
5265,8250.419480336404
2,4,10, 4, 0,22, 0.00,60.00,Thursday
2232,0.0
2233,0.0
5265,8238.360843048538
2,4,10, 4, 0,23, 0.00,60.00,Thursday
2232,0.0
2233,0.0
5265,8235.496406499775
2,4,10, 4, 0,24, 0.00,60.00,Thursday
2232,0.0
2233,0.0
5265,8191.882756048563
2,5,10, 5, 0, 1, 0.00,60.00,Friday
2232,0.0
2233,0.0
5265,8095.206772814917
2,5,10, 5, 0, 2, 0.00,60.00,Friday
2232,0.0
2233,0.0
5265,7996.323249992221
2,5,10, 5, 0, 3, 0.00,60.00,Friday
2232,0.0
2233,0.0
5265,7931.840545747746
2,5,10, 5, 0, 4, 0.00,60.00,Friday
2232,0.0
2233,0.0
5265,7915.329472777436
2,5,10, 5, 0, 5, 0.00,60.00,Friday
2232,0.0
2233,0.0
5265,7907.040288792581
2,5,10, 5, 0, 6, 0.00,60.00,Friday
2232,122.33701374843236
2233,46.90630209477688
5265,7922.972001138162
2,5,10, 5, 0, 7, 0.00,60.00,Friday
2232,797.1548616725371
2233,289.89314830296777
5265,7981.209672108217
2,5,10, 5, 0, 8, 0.00,60.00,Friday
2232,708.1630510516442
2233,442.59381161765188
5265,28014.380316179497
2,5,10, 5, 0, 9, 0.00,60.00,Friday
2232,814.6420048355048
2233,513.6413434756399
5265,70319.01216192164
2,5,10, 5, 0,10, 0.00,60.00,Friday
2232,762.5884615675521
2233,491.6684219683371
5265,137594.93103974139
2,5,10, 5, 0,11, 0.00,60.00,Friday
2232,678.6112062606385
2233,447.943154922031
5265,136158.9478709906
2,5,10, 5, 0,12, 0.00,60.00,Friday
2232,598.9467083744361
2233,401.7633824881123
5265,142519.65220258226
2,5,10, 5, 0,13, 0.00,60.00,Friday
2232,598.3336361205853
2233,395.2608195649586
5265,156296.46167873266
2,5,10, 5, 0,14, 0.00,60.00,Friday
2232,642.8086208591968
2233,411.25092756082156
5265,166606.7512950498
2,5,10, 5, 0,15, 0.00,60.00,Friday
2232,589.8393551876637
2233,366.68112818311439
5265,145363.70663904245
2,5,10, 5, 0,16, 0.00,60.00,Friday
2232,396.69525770136519
2233,243.54624533950907
5265,126677.22159536423
2,5,10, 5, 0,17, 0.00,60.00,Friday
2232,190.745394640727
2233,117.25835435452213
5265,117316.33943341281
2,5,10, 5, 0,18, 0.00,60.00,Friday
2232,20.97069901639647
2233,12.805841668323188
5265,55630.456451637205
2,5,10, 5, 0,19, 0.00,60.00,Friday
2232,0.0
2233,0.0
5265,29414.28550229617
2,5,10, 5, 0,20, 0.00,60.00,Friday
2232,0.0
2233,0.0
5265,18544.724003834835
2,5,10, 5, 0,21, 0.00,60.00,Friday
2232,0.0
2233,0.0
5265,13414.022135361987
2,5,10, 5, 0,22, 0.00,60.00,Friday
2232,0.0
2233,0.0
5265,8304.737795426134
2,5,10, 5, 0,23, 0.00,60.00,Friday
2232,0.0
2233,0.0
5265,8277.06456427606
2,5,10, 5, 0,24, 0.00,60.00,Friday
2232,0.0
2233,0.0
5265,8254.17180377928
2,6,10, 6, 0, 1, 0.00,60.00,Saturday
2232,0.0
2233,0.0
5265,8229.446580469854
2,6,10, 6, 0, 2, 0.00,60.00,Saturday
2232,0.0
2233,0.0
5265,8214.045773782507
2,6,10, 6, 0, 3, 0.00,60.00,Saturday
2232,0.0
2233,0.0
5265,8188.439434952014
2,6,10, 6, 0, 4, 0.00,60.00,Saturday
2232,0.0
2233,0.0
5265,8167.347067399972
2,6,10, 6, 0, 5, 0.00,60.00,Saturday
2232,0.0
2233,0.0
5265,8150.21143241839
2,6,10, 6, 0, 6, 0.00,60.00,Saturday
2232,53.895495438907868
2233,24.289058559609115
5265,8125.042761609343
2,6,10, 6, 0, 7, 0.00,60.00,Saturday
2232,331.2466240193051
2233,151.4018833448121
5265,8090.025037488941
2,6,10, 6, 0, 8, 0.00,60.00,Saturday
2232,480.3485934088608
2233,301.35454127045088
5265,8086.386202760589
2,6,10, 6, 0, 9, 0.00,60.00,Saturday
2232,729.3740349855967
2233,461.3235276984615
5265,42058.63928884817
2,6,10, 6, 0,10, 0.00,60.00,Saturday
2232,772.0874819583519
2233,497.84697995985035
5265,62932.418488514806
2,6,10, 6, 0,11, 0.00,60.00,Saturday
2232,694.662067736541
2233,458.7701521534082
5265,77404.97701548827
2,6,10, 6, 0,12, 0.00,60.00,Saturday
2232,640.8061180017644
2233,428.65016001369539
5265,71536.0372369414
2,6,10, 6, 0,13, 0.00,60.00,Saturday
2232,604.6919732656952
2233,400.08632813383027
5265,60062.070373200004
2,6,10, 6, 0,14, 0.00,60.00,Saturday
2232,561.7659092470648
2233,362.628115750855
5265,52687.48998156621
2,6,10, 6, 0,15, 0.00,60.00,Saturday
2232,489.77053589780896
2233,309.3807082077265
5265,52984.187891632704
2,6,10, 6, 0,16, 0.00,60.00,Saturday
2232,357.76971263884027
2233,223.79040193337074
5265,47828.87974616556
2,6,10, 6, 0,17, 0.00,60.00,Saturday
2232,179.2844763110446
2233,110.95811471272237
5265,39151.455718142315
2,6,10, 6, 0,18, 0.00,60.00,Saturday
2232,18.334187590371888
2233,11.233133755368291
5265,35235.72845978663
2,6,10, 6, 0,19, 0.00,60.00,Saturday
2232,0.0
2233,0.0
5265,28441.657712200835
2,6,10, 6, 0,20, 0.00,60.00,Saturday
2232,0.0
2233,0.0
5265,11605.641480478407
2,6,10, 6, 0,21, 0.00,60.00,Saturday
2232,0.0
2233,0.0
5265,11478.671047145292
2,6,10, 6, 0,22, 0.00,60.00,Saturday
2232,0.0
2233,0.0
5265,8658.961778557297
2,6,10, 6, 0,23, 0.00,60.00,Saturday
2232,0.0
2233,0.0
5265,8334.406959672671
2,6,10, 6, 0,24, 0.00,60.00,Saturday
2232,0.0
2233,0.0
5265,8165.173672587091
2,7,10, 7, 0, 1, 0.00,60.00,Sunday
2232,0.0
2233,0.0
5265,8112.772636016136
2,7,10, 7, 0, 2, 0.00,60.00,Sunday
2232,0.0
2233,0.0
5265,8091.682416000374
2,7,10, 7, 0, 3, 0.00,60.00,Sunday
2232,0.0
2233,0.0
5265,8063.982757300689
2,7,10, 7, 0, 4, 0.00,60.00,Sunday
2232,0.0
2233,0.0
5265,8020.335031423824
2,7,10, 7, 0, 5, 0.00,60.00,Sunday
2232,0.0
2233,0.0
5265,7973.107022768568
2,7,10, 7, 0, 6, 0.00,60.00,Sunday
2232,57.09260191475016
2233,24.99759547776181
5265,7953.679509726105
2,7,10, 7, 0, 7, 0.00,60.00,Sunday
2232,360.14797320640556
2233,161.17334580093408
5265,7998.8555598905805
2,7,10, 7, 0, 8, 0.00,60.00,Sunday
2232,526.1798205821275
2233,330.7255798202284
5265,8087.067408108924
2,7,10, 7, 0, 9, 0.00,60.00,Sunday
2232,693.3620096820317
2233,438.5339560478041
5265,8195.043180531668
2,7,10, 7, 0,10, 0.00,60.00,Sunday
2232,708.6297982938144
2233,456.85163442754159
5265,8298.517559930124
2,7,10, 7, 0,11, 0.00,60.00,Sunday
2232,646.7058352994441
2233,426.28418590088315
5265,8361.44565579733
2,7,10, 7, 0,12, 0.00,60.00,Sunday
2232,584.4758645828895
2233,389.15042377455526
5265,8363.0916942529
2,7,10, 7, 0,13, 0.00,60.00,Sunday
2232,553.850104060649
2233,365.6134352283313
5265,8304.506965285342
2,7,10, 7, 0,14, 0.00,60.00,Sunday
2232,514.6123084962313
2233,332.25839422872687
5265,8242.368082581888
2,7,10, 7, 0,15, 0.00,60.00,Sunday
2232,466.4983323665039
2233,294.9949489959489
5265,8227.590721096263
2,7,10, 7, 0,16, 0.00,60.00,Sunday
2232,345.00722865318286
2233,216.2234653862338
5265,8282.874299464771
2,7,10, 7, 0,17, 0.00,60.00,Sunday
2232,173.01401537110523
2233,107.44568492398281
5265,8346.15362769769
2,7,10, 7, 0,18, 0.00,60.00,Sunday
2232,17.676815708637027
2233,10.8533688071085
5265,8381.194342424771
2,7,10, 7, 0,19, 0.00,60.00,Sunday
2232,0.0
2233,0.0
5265,8346.99225221711
2,7,10, 7, 0,20, 0.00,60.00,Sunday
2232,0.0
2233,0.0
5265,8292.675426814672
2,7,10, 7, 0,21, 0.00,60.00,Sunday
2232,0.0
2233,0.0
5265,8241.201722862339
2,7,10, 7, 0,22, 0.00,60.00,Sunday
2232,0.0
2233,0.0
5265,8182.7270854134185
2,7,10, 7, 0,23, 0.00,60.00,Sunday
2232,0.0
2233,0.0
5265,8116.935100490799
2,7,10, 7, 0,24, 0.00,60.00,Sunday
2232,0.0
2233,0.0
5265,8073.460083694924
2,8,10, 8, 0, 1, 0.00,60.00,Monday
2232,0.0
2233,0.0
5265,7700.771571592064
2,8,10, 8, 0, 2, 0.00,60.00,Monday
2232,0.0
2233,0.0
5265,7745.2120279901255
2,8,10, 8, 0, 3, 0.00,60.00,Monday
2232,0.0
2233,0.0
5265,7692.45577994639
2,8,10, 8, 0, 4, 0.00,60.00,Monday
2232,0.0
2233,0.0
5265,7618.318361693061
2,8,10, 8, 0, 5, 0.00,60.00,Monday
2232,0.0
2233,0.0
5265,7550.809123135042
2,8,10, 8, 0, 6, 0.00,60.00,Monday
2232,62.70762642113112
2233,26.73600072317512
5265,7497.418424476993
2,8,10, 8, 0, 7, 0.00,60.00,Monday
2232,378.3074682143338
2233,164.29745580822817
5265,7473.771178989881
2,8,10, 8, 0, 8, 0.00,60.00,Monday
2232,491.0854145628347
2233,308.522786830542
5265,29277.84489993137
2,8,10, 8, 0, 9, 0.00,60.00,Monday
2232,678.8819708378331
2233,429.4739142738422
5265,60368.1993224339
2,8,10, 8, 0,10, 0.00,60.00,Monday
2232,712.2009815130791
2233,459.17635872185107
5265,88311.49903127004
2,8,10, 8, 0,11, 0.00,60.00,Monday
2232,659.7473803654422
2233,435.1410683260192
5265,90520.99822065437
2,8,10, 8, 0,12, 0.00,60.00,Monday
2232,589.3630691646771
2233,392.5145775183633
5265,129792.12710571669
2,8,10, 8, 0,13, 0.00,60.00,Monday
2232,529.6348909499264
2233,349.6401900652327
5265,132443.53446067879
2,8,10, 8, 0,14, 0.00,60.00,Monday
2232,449.718480587625
2233,291.54777051310347
5265,165532.98591288634
2,8,10, 8, 0,15, 0.00,60.00,Monday
2232,364.78838063225069
2233,232.38438017362538
5265,174822.41050804684
2,8,10, 8, 0,16, 0.00,60.00,Monday
2232,254.3232326731413
2233,160.8118344367364
5265,156185.77010739383
2,8,10, 8, 0,17, 0.00,60.00,Monday
2232,122.49169124462196
2233,78.03373990585388
5265,135130.91527428138
2,8,10, 8, 0,18, 0.00,60.00,Monday
2232,12.647098054767663
2233,8.00905842492016
5265,52373.42386057368
2,8,10, 8, 0,19, 0.00,60.00,Monday
2232,0.0
2233,0.0
5265,25742.620692718116
2,8,10, 8, 0,20, 0.00,60.00,Monday
2232,0.0
2233,0.0
5265,10856.941107659915
2,8,10, 8, 0,21, 0.00,60.00,Monday
2232,0.0
2233,0.0
5265,8428.072593938568
2,8,10, 8, 0,22, 0.00,60.00,Monday
2232,0.0
2233,0.0
5265,7979.515682895842
2,8,10, 8, 0,23, 0.00,60.00,Monday
2232,0.0
2233,0.0
5265,7943.407181090675
2,8,10, 8, 0,24, 0.00,60.00,Monday
2232,0.0
2233,0.0
5265,7915.20958800906
2,9,10, 9, 0, 1, 0.00,60.00,Tuesday
2232,0.0
2233,0.0
5265,7120.5915495956
2,9,10, 9, 0, 2, 0.00,60.00,Tuesday
2232,0.0
2233,0.0
5265,7209.060658572204
2,9,10, 9, 0, 3, 0.00,60.00,Tuesday
2232,0.0
2233,0.0
5265,7156.0524311713125
2,9,10, 9, 0, 4, 0.00,60.00,Tuesday
2232,0.0
2233,0.0
5265,7082.27549654003
2,9,10, 9, 0, 5, 0.00,60.00,Tuesday
2232,0.0
2233,0.0
5265,7004.165349128461
2,9,10, 9, 0, 6, 0.00,60.00,Tuesday
2232,121.05588476636233
2233,46.92889510891094
5265,7131.557591274628
2,9,10, 9, 0, 7, 0.00,60.00,Tuesday
2232,823.2110731442762
2233,302.4398270123522
5265,7521.2229145925885
2,9,10, 9, 0, 8, 0.00,60.00,Tuesday
2232,847.5384325267049
2233,517.47831865561
5265,20824.87459793616
2,9,10, 9, 0, 9, 0.00,60.00,Tuesday
2232,992.4729591080849
2233,616.4778615311373
5265,73756.13269972452
2,9,10, 9, 0,10, 0.00,60.00,Tuesday
2232,925.5141006327308
2233,589.0828712509932
5265,105930.40578041096
2,9,10, 9, 0,11, 0.00,60.00,Tuesday
2232,756.5750229092746
2233,496.64696966259165
5265,114656.41314901097
2,9,10, 9, 0,12, 0.00,60.00,Tuesday
2232,642.6813555704372
2233,430.42980459123808
5265,152615.40390270897
2,9,10, 9, 0,13, 0.00,60.00,Tuesday
2232,635.3836730547583
2233,419.8632278575192
5265,144445.8509896216
2,9,10, 9, 0,14, 0.00,60.00,Tuesday
2232,639.2994546147974
2233,409.3119673170909
5265,168170.7957751843
2,9,10, 9, 0,15, 0.00,60.00,Tuesday
2232,537.5195040774236
2233,334.53603019708268
5265,147194.30467866807
2,9,10, 9, 0,16, 0.00,60.00,Tuesday
2232,360.9111225120583
2233,224.67761610051495
5265,149761.6536268493
2,9,10, 9, 0,17, 0.00,60.00,Tuesday
2232,149.6502545825978
2233,94.27934168978539
5265,125507.83279368289
2,9,10, 9, 0,18, 0.00,60.00,Tuesday
2232,14.13109879538689
2233,8.853689189401204
5265,111275.59807797359
2,9,10, 9, 0,19, 0.00,60.00,Tuesday
2232,0.0
2233,0.0
5265,66395.64673134801
2,9,10, 9, 0,20, 0.00,60.00,Tuesday
2232,0.0
2233,0.0
5265,32350.15317562237
2,9,10, 9, 0,21, 0.00,60.00,Tuesday
2232,0.0
2233,0.0
5265,8656.830151107755
2,9,10, 9, 0,22, 0.00,60.00,Tuesday
2232,0.0
2233,0.0
5265,8394.976009909158
2,9,10, 9, 0,23, 0.00,60.00,Tuesday
2232,0.0
2233,0.0
5265,8304.569351438606
2,9,10, 9, 0,24, 0.00,60.00,Tuesday
2232,0.0
2233,0.0
5265,8258.633443928307
2,10,10,10, 0, 1, 0.00,60.00,Wednesday
2232,0.0
2233,0.0
5265,8229.035587689104
2,10,10,10, 0, 2, 0.00,60.00,Wednesday
2232,0.0
2233,0.0
5265,8203.793163465934
2,10,10,10, 0, 3, 0.00,60.00,Wednesday
2232,0.0
2233,0.0
5265,8174.521310340281
2,10,10,10, 0, 4, 0.00,60.00,Wednesday
2232,0.0
2233,0.0
5265,8125.456259642415
2,10,10,10, 0, 5, 0.00,60.00,Wednesday
2232,0.0
2233,0.0
5265,8006.01816211523
2,10,10,10, 0, 6, 0.00,60.00,Wednesday
2232,64.59384986880683
2233,27.61941133826848
5265,8027.041098091223
2,10,10,10, 0, 7, 0.00,60.00,Wednesday
2232,383.4868300216381
2233,166.70145705947957
5265,8195.323882729324
2,10,10,10, 0, 8, 0.00,60.00,Wednesday
2232,481.6250838340061
2233,302.07477107636466
5265,25401.093808891106
2,10,10,10, 0, 9, 0.00,60.00,Wednesday
2232,728.9134113740182
2233,460.8871283071075
5265,81059.40467789503
2,10,10,10, 0,10, 0.00,60.00,Wednesday
2232,767.082367982575
2233,494.55655779671135
5265,113668.28831425817
2,10,10,10, 0,11, 0.00,60.00,Wednesday
2232,682.1299848352992
2233,450.7021894143484
5265,135718.55638765024
2,10,10,10, 0,12, 0.00,60.00,Wednesday
2232,553.4884007499537
2233,372.185753405113
5265,171932.80738964678
2,10,10,10, 0,13, 0.00,60.00,Wednesday
2232,595.8832923765088
2233,393.5164913073116
5265,172176.8923566023
2,10,10,10, 0,14, 0.00,60.00,Wednesday
2232,626.7015307306277
2233,400.6243233608043
5265,172376.13604443617
2,10,10,10, 0,15, 0.00,60.00,Wednesday
2232,586.2039884911759
2233,364.6458839861841
5265,178799.15024260965
2,10,10,10, 0,16, 0.00,60.00,Wednesday
2232,446.0276352742012
2233,273.25639876490569
5265,145204.01779587699
2,10,10,10, 0,17, 0.00,60.00,Wednesday
2232,230.14550151056015
2233,140.10891561104098
5265,83762.77910763545
2,10,10,10, 0,18, 0.00,60.00,Wednesday
2232,24.283652945756065
2233,14.582471619206637
5265,52929.779003129224
2,10,10,10, 0,19, 0.00,60.00,Wednesday
2232,0.0
2233,0.0
5265,23338.911972433027
2,10,10,10, 0,20, 0.00,60.00,Wednesday
2232,0.0
2233,0.0
5265,9365.682073321525
2,10,10,10, 0,21, 0.00,60.00,Wednesday
2232,0.0
2233,0.0
5265,8908.760575751769
2,10,10,10, 0,22, 0.00,60.00,Wednesday
2232,0.0
2233,0.0
5265,8464.123618059764
2,10,10,10, 0,23, 0.00,60.00,Wednesday
2232,0.0
2233,0.0
5265,8432.466512968485
2,10,10,10, 0,24, 0.00,60.00,Wednesday
2232,0.0
2233,0.0
5265,8395.131578654298
2,11,10,11, 0, 1, 0.00,60.00,Thursday
2232,0.0
2233,0.0
5265,8344.516751920219
2,11,10,11, 0, 2, 0.00,60.00,Thursday
2232,0.0
2233,0.0
5265,8283.973074893398
2,11,10,11, 0, 3, 0.00,60.00,Thursday
2232,0.0
2233,0.0
5265,8244.031929203144
2,11,10,11, 0, 4, 0.00,60.00,Thursday
2232,0.0
2233,0.0
5265,8217.444576781325
2,11,10,11, 0, 5, 0.00,60.00,Thursday
2232,0.0
2233,0.0
5265,8191.053849850247
2,11,10,11, 0, 6, 0.00,60.00,Thursday
2232,75.41276763394952
2233,30.970972075437687
5265,8212.638669889111
2,11,10,11, 0, 7, 0.00,60.00,Thursday
2232,456.630049308889
2233,191.29840080028439
5265,8318.639162268935
2,11,10,11, 0, 8, 0.00,60.00,Thursday
2232,547.6285463050305
2233,344.1551888153251
5265,23844.941872967025
2,11,10,11, 0, 9, 0.00,60.00,Thursday
2232,700.238181999428
2233,442.72110072451445
5265,114448.10334656855
2,11,10,11, 0,10, 0.00,60.00,Thursday
2232,712.7377445576427
2233,459.40015201410309
5265,148920.25597647075
2,11,10,11, 0,11, 0.00,60.00,Thursday
2232,661.7771449927578
2233,436.33700479175038
5265,167482.7937966199
2,11,10,11, 0,12, 0.00,60.00,Thursday
2232,624.6228431123515
2233,416.88197989894908
5265,169462.73784741466
2,11,10,11, 0,13, 0.00,60.00,Thursday
2232,602.127635079388
2233,398.4894517679954
5265,172214.68894950144
2,11,10,11, 0,14, 0.00,60.00,Thursday
2232,572.3454056062659
2233,369.07343806654645
5265,184391.56150986497
2,11,10,11, 0,15, 0.00,60.00,Thursday
2232,500.05176347933158
2233,315.7921646007759
5265,180401.53275720255
2,11,10,11, 0,16, 0.00,60.00,Thursday
2232,353.84525219855149
2233,220.85149687307263
5265,182044.1450029692
2,11,10,11, 0,17, 0.00,60.00,Thursday
2232,168.74578026033607
2233,104.48256267060964
5265,168454.46572894808
2,11,10,11, 0,18, 0.00,60.00,Thursday
2232,17.18245096232926
2233,10.538905564117295
5265,88505.85203977418
2,11,10,11, 0,19, 0.00,60.00,Thursday
2232,0.0
2233,0.0
5265,63660.93665239619
2,11,10,11, 0,20, 0.00,60.00,Thursday
2232,0.0
2233,0.0
5265,45720.00231697888
2,11,10,11, 0,21, 0.00,60.00,Thursday
2232,0.0
2233,0.0
5265,8469.398074218532
2,11,10,11, 0,22, 0.00,60.00,Thursday
2232,0.0
2233,0.0
5265,8423.894726082908
2,11,10,11, 0,23, 0.00,60.00,Thursday
2232,0.0
2233,0.0
5265,8382.4263712918
2,11,10,11, 0,24, 0.00,60.00,Thursday
2232,0.0
2233,0.0
5265,8335.936121752626
2,12,10,12, 0, 1, 0.00,60.00,Friday
2232,0.0
2233,0.0
5265,8264.511717651383
2,12,10,12, 0, 2, 0.00,60.00,Friday
2232,0.0
2233,0.0
5265,8186.135222060075
2,12,10,12, 0, 3, 0.00,60.00,Friday
2232,0.0
2233,0.0
5265,8152.346726304557
2,12,10,12, 0, 4, 0.00,60.00,Friday
2232,0.0
2233,0.0
5265,8188.770379961229
2,12,10,12, 0, 5, 0.00,60.00,Friday
2232,0.0
2233,0.0
5265,8226.176591605361
2,12,10,12, 0, 6, 0.00,60.00,Friday
2232,70.67752835418686
2233,29.47765605352538
5265,8260.891523403945
2,12,10,12, 0, 7, 0.00,60.00,Friday
2232,441.97836581697296
2233,187.13185766007073
5265,8331.120137556709
2,12,10,12, 0, 8, 0.00,60.00,Friday
2232,559.774411853276
2233,352.1247303433933
5265,29224.685340325046
2,12,10,12, 0, 9, 0.00,60.00,Friday
2232,721.8815806651957
2233,456.39702636274577
5265,92036.87287683533
2,12,10,12, 0,10, 0.00,60.00,Friday
2232,731.6416004132043
2233,471.525899348358
5265,150659.9590590146
2,12,10,12, 0,11, 0.00,60.00,Friday
2232,668.250901812835
2233,440.772150326706
5265,149064.83924245466
2,12,10,12, 0,12, 0.00,60.00,Friday
2232,613.8697492580263
2233,409.4150180331674
5265,151911.01684419963
2,12,10,12, 0,13, 0.00,60.00,Friday
2232,580.0270845239696
2233,383.24697884574865
5265,161246.28561322523
2,12,10,12, 0,14, 0.00,60.00,Friday
2232,545.7838560967473
2233,352.3360211991364
5265,168624.99140850086
2,12,10,12, 0,15, 0.00,60.00,Friday
2232,474.8240445642776
2233,300.0305729803729
5265,148984.69100767835
2,12,10,12, 0,16, 0.00,60.00,Friday
2232,342.4516037596439
2233,214.4478988640275
5265,131967.6763847257
2,12,10,12, 0,17, 0.00,60.00,Friday
2232,159.98266517145124
2233,99.62932564483042
5265,122254.06469989226
2,12,10,12, 0,18, 0.00,60.00,Friday
2232,15.843383667563494
2233,9.759869082905296
5265,56022.65632710729
2,12,10,12, 0,19, 0.00,60.00,Friday
2232,0.0
2233,0.0
5265,29689.97272809756
2,12,10,12, 0,20, 0.00,60.00,Friday
2232,0.0
2233,0.0
5265,18675.157824689173
2,12,10,12, 0,21, 0.00,60.00,Friday
2232,0.0
2233,0.0
5265,13467.812602408218
2,12,10,12, 0,22, 0.00,60.00,Friday
2232,0.0
2233,0.0
5265,8283.892801662207
2,12,10,12, 0,23, 0.00,60.00,Friday
2232,0.0
2233,0.0
5265,8186.292397688251
2,12,10,12, 0,24, 0.00,60.00,Friday
2232,0.0
2233,0.0
5265,8118.627805074569
2,13,10,13, 0, 1, 0.00,60.00,Saturday
2232,0.0
2233,0.0
5265,8108.414351134211
2,13,10,13, 0, 2, 0.00,60.00,Saturday
2232,0.0
2233,0.0
5265,8111.490549122773
2,13,10,13, 0, 3, 0.00,60.00,Saturday
2232,0.0
2233,0.0
5265,8114.530081733615
2,13,10,13, 0, 4, 0.00,60.00,Saturday
2232,0.0
2233,0.0
5265,8108.593200076921
2,13,10,13, 0, 5, 0.00,60.00,Saturday
2232,0.0
2233,0.0
5265,8102.801054807721
2,13,10,13, 0, 6, 0.00,60.00,Saturday
2232,75.55857447356742
2233,30.939232618992013
5265,8132.4947235813825
2,13,10,13, 0, 7, 0.00,60.00,Saturday
2232,456.6295618004643
2233,190.8664258732839
5265,8241.252406074957
2,13,10,13, 0, 8, 0.00,60.00,Saturday
2232,548.1344292460653
2233,344.5509527204551
5265,8386.178892149743
2,13,10,13, 0, 9, 0.00,60.00,Saturday
2232,719.1577174542786
2233,454.66676487352637
5265,58373.32596806306
2,13,10,13, 0,10, 0.00,60.00,Saturday
2232,737.0692721945817
2233,475.0165081401345
5265,82976.19788644194
2,13,10,13, 0,11, 0.00,60.00,Saturday
2232,673.1491755653516
2233,444.0999904071078
5265,93944.89571905507
2,13,10,13, 0,12, 0.00,60.00,Saturday
2232,620.9893007055915
2233,414.6003650124563
5265,84461.18877005419
2,13,10,13, 0,13, 0.00,60.00,Saturday
2232,593.0244381907211
2233,392.26058259193379
5265,64054.98782280532
2,13,10,13, 0,14, 0.00,60.00,Saturday
2232,565.7424296192024
2233,365.30795669517996
5265,57461.95577778094
2,13,10,13, 0,15, 0.00,60.00,Saturday
2232,490.9878390129887
2233,310.0897921616883
5265,57597.390666200845
2,13,10,13, 0,16, 0.00,60.00,Saturday
2232,352.15744034134488
2233,219.54141569541808
5265,51791.22756704006
2,13,10,13, 0,17, 0.00,60.00,Saturday
2232,163.95386555452994
2233,101.64548876260635
5265,42198.67781425165
2,13,10,13, 0,18, 0.00,60.00,Saturday
2232,16.256306571641614
2233,9.974129118098768
5265,36060.23411647522
2,13,10,13, 0,19, 0.00,60.00,Saturday
2232,0.0
2233,0.0
5265,28645.982240586793
2,13,10,13, 0,20, 0.00,60.00,Saturday
2232,0.0
2233,0.0
5265,12673.554153552186
2,13,10,13, 0,21, 0.00,60.00,Saturday
2232,0.0
2233,0.0
5265,12506.713688496066
2,13,10,13, 0,22, 0.00,60.00,Saturday
2232,0.0
2233,0.0
5265,8685.216597772394
2,13,10,13, 0,23, 0.00,60.00,Saturday
2232,0.0
2233,0.0
5265,8440.739820521716
2,13,10,13, 0,24, 0.00,60.00,Saturday
2232,0.0
2233,0.0
5265,8353.710354973944
2,14,10,14, 0, 1, 0.00,60.00,Sunday