Program Version,EnergyPlus, Version 8.7.0-78a111df4a, YMD=2019.11.22 13:28
1,5,Environment Title[],Latitude[deg],Longitude[deg],Time Zone[],Elevation[m]
2,6,Day of Simulation[],Month[],Day of Month[],DST Indicator[1=yes 0=no],Hour[],StartMinute[],EndMinute[],DayType
3,3,Cumulative Day of Simulation[],Month[],Day of Month[],DST Indicator[1=yes 0=no],DayType  ! When Daily Report Variables Requested
4,2,Cumulative Days of Simulation[],Month[]  ! When Monthly Report Variables Requested
5,1,Cumulative Days of Simulation[] ! When Run Period Report Variables Requested
2232,1,AF305DAYLIGHINGCONTROL,Daylighting Reference Point 1 Illuminance [lux] !Hourly
2233,1,AF305DAYLIGHINGCONTROL,Daylighting Reference Point 2 Illuminance [lux] !Hourly
5265,1,Whole Building,Facility Total Electric Demand Power [W] !Hourly
End of Data Dictionary
1,RUNPERIOD,  10.30, 123.97,   8.00,  24.00
2,1,10, 1, 0, 1, 0.00,60.00,Monday
2232,0.0
2233,0.0
5265,7963.017272001282
2,1,10, 1, 0, 2, 0.00,60.00,Monday
2232,0.0
2233,0.0
5265,7877.944968411619
2,1,10, 1, 0, 3, 0.00,60.00,Monday
2232,0.0
2233,0.0
5265,7740.801417253136
2,1,10, 1, 0, 4, 0.00,60.00,Monday
2232,0.0
2233,0.0
5265,7672.267153196008
2,1,10, 1, 0, 5, 0.00,60.00,Monday
2232,0.0
2233,0.0
5265,7608.173297778648
2,1,10, 1, 0, 6, 0.00,60.00,Monday
2232,126.03815223668348
2233,45.58890906547336
5265,7667.6595646182
2,1,10, 1, 0, 7, 0.00,60.00,Monday
2232,858.0331093810049
2233,274.39851149934335
5265,7805.949225552012
2,1,10, 1, 0, 8, 0.00,60.00,Monday
2232,692.8792046839744
2233,417.1215961846545
5265,29706.342257138924
2,1,10, 1, 0, 9, 0.00,60.00,Monday
2232,777.2326664957824
2233,480.82055470127929
5265,61874.24681707583
2,1,10, 1, 0,10, 0.00,60.00,Monday
2232,720.358328423757
2233,458.32940798686107
5265,96309.80478936382
2,1,10, 1, 0,11, 0.00,60.00,Monday
2232,586.5672610207043
2233,385.2538326053777
5265,98030.95370563143
2,1,10, 1, 0,12, 0.00,60.00,Monday
2232,460.10609996502145
2233,308.98136889738955
5265,141694.39927415169
2,1,10, 1, 0,13, 0.00,60.00,Monday
2232,453.8287158016699
2233,300.75927583625
5265,145111.92594510859
2,1,10, 1, 0,14, 0.00,60.00,Monday
2232,437.46954945518766
2233,282.5366185929507
5265,170382.44821892796
2,1,10, 1, 0,15, 0.00,60.00,Monday
2232,343.97238990009279
2233,217.6564223415802
5265,177616.67556937345
2,1,10, 1, 0,16, 0.00,60.00,Monday
2232,225.34667473574636
2233,141.8923830481274
5265,158774.61786176565
2,1,10, 1, 0,17, 0.00,60.00,Monday
2232,91.7409666484276
2233,58.54991217872981
5265,137267.5701978904
2,1,10, 1, 0,18, 0.00,60.00,Monday
2232,10.409534898632617
2233,6.635889044832809
5265,52789.03110526993
2,1,10, 1, 0,19, 0.00,60.00,Monday
2232,0.0
2233,0.0
5265,26000.55588710556
2,1,10, 1, 0,20, 0.00,60.00,Monday
2232,0.0
2233,0.0
5265,10994.510620013816
2,1,10, 1, 0,21, 0.00,60.00,Monday
2232,0.0
2233,0.0
5265,8577.829551667242
2,1,10, 1, 0,22, 0.00,60.00,Monday
2232,0.0
2233,0.0
5265,8150.59601330973
2,1,10, 1, 0,23, 0.00,60.00,Monday
2232,0.0
2233,0.0
5265,8136.9201480324655
2,1,10, 1, 0,24, 0.00,60.00,Monday
2232,0.0
2233,0.0
5265,8119.429471205141
2,2,10, 2, 0, 1, 0.00,60.00,Tuesday
2232,0.0
2233,0.0
5265,7871.989536985077
2,2,10, 2, 0, 2, 0.00,60.00,Tuesday
2232,0.0
2233,0.0
5265,7779.889530858968
2,2,10, 2, 0, 3, 0.00,60.00,Tuesday
2232,0.0
2233,0.0
5265,7669.911163300875
2,2,10, 2, 0, 4, 0.00,60.00,Tuesday
2232,0.0
2233,0.0
5265,7553.677197479301
2,2,10, 2, 0, 5, 0.00,60.00,Tuesday
2232,0.0
2233,0.0
5265,7426.659325282028
2,2,10, 2, 0, 6, 0.00,60.00,Tuesday
2232,126.72796420079244
2233,46.47556313655451
5265,7538.586049274793
2,2,10, 2, 0, 7, 0.00,60.00,Tuesday
2232,871.4639536962119
2233,281.7523095199148
5265,7974.399664843698
2,2,10, 2, 0, 8, 0.00,60.00,Tuesday
2232,732.4560408910547
2233,434.94107503919278
5265,21087.60269106644
2,2,10, 2, 0, 9, 0.00,60.00,Tuesday
2232,802.826550928647
2233,494.92565330717647
5265,82563.76969170138
2,2,10, 2, 0,10, 0.00,60.00,Tuesday
2232,734.729854422943
2233,466.82715563816529
5265,115319.09781222265
2,2,10, 2, 0,11, 0.00,60.00,Tuesday
2232,570.4630686151226
2233,374.8438020179901
5265,121025.86507963711
2,2,10, 2, 0,12, 0.00,60.00,Tuesday
2232,473.97979328279606
2233,317.69549188713656
5265,151861.17695253765
2,2,10, 2, 0,13, 0.00,60.00,Tuesday
2232,456.66849717935926
2233,301.87868449122376
5265,136669.34117165485
2,2,10, 2, 0,14, 0.00,60.00,Tuesday
2232,387.460276011447
2233,250.43575100735164
5265,154253.42383410608
2,2,10, 2, 0,15, 0.00,60.00,Tuesday
2232,322.1199485198953
2233,204.20862994433069
5265,130426.18854546525
2,2,10, 2, 0,16, 0.00,60.00,Tuesday
2232,226.05713613887509
2233,142.28279924291165
5265,135213.77790070963
2,2,10, 2, 0,17, 0.00,60.00,Tuesday
2232,114.68225712420689
2233,72.80181364647749
5265,111029.81926572095
2,2,10, 2, 0,18, 0.00,60.00,Tuesday
2232,12.939273094352123
2233,8.16349677533407
5265,109442.80950072548
2,2,10, 2, 0,19, 0.00,60.00,Tuesday
2232,0.0
2233,0.0
5265,64257.629846997384
2,2,10, 2, 0,20, 0.00,60.00,Tuesday
2232,0.0
2233,0.0
5265,31289.917712876064
2,2,10, 2, 0,21, 0.00,60.00,Tuesday
2232,0.0
2233,0.0
5265,8631.990493445248
2,2,10, 2, 0,22, 0.00,60.00,Tuesday
2232,0.0
2233,0.0
5265,8386.292650869234
2,2,10, 2, 0,23, 0.00,60.00,Tuesday
2232,0.0
2233,0.0
5265,8335.223156199596
2,2,10, 2, 0,24, 0.00,60.00,Tuesday
2232,0.0
2233,0.0
5265,8295.605639180341
2,3,10, 3, 0, 1, 0.00,60.00,Wednesday
2232,0.0
2233,0.0
5265,8219.10815841262
2,3,10, 3, 0, 2, 0.00,60.00,Wednesday
2232,0.0
2233,0.0
5265,8122.282520187309
2,3,10, 3, 0, 3, 0.00,60.00,Wednesday
2232,0.0
2233,0.0
5265,7992.530025255056
2,3,10, 3, 0, 4, 0.00,60.00,Wednesday
2232,0.0
2233,0.0
5265,7930.962564568536
2,3,10, 3, 0, 5, 0.00,60.00,Wednesday
2232,0.0
2233,0.0
5265,7859.024199148723
2,3,10, 3, 0, 6, 0.00,60.00,Wednesday
2232,48.898905599497847
2233,20.94645163165949
5265,7900.038331615531
2,3,10, 3, 0, 7, 0.00,60.00,Wednesday
2232,303.2702283059335
2233,132.0835833739979
5265,8081.749050242851
2,3,10, 3, 0, 8, 0.00,60.00,Wednesday
2232,419.26451819390089
2233,263.5091931766142
5265,25186.879516356843
2,3,10, 3, 0, 9, 0.00,60.00,Wednesday
2232,589.2906174444992
2233,372.70774838693645
5265,75803.70104676538
2,3,10, 3, 0,10, 0.00,60.00,Wednesday
2232,601.8821653043345
2233,388.0082709678363
5265,112799.53827575244
2,3,10, 3, 0,11, 0.00,60.00,Wednesday
2232,539.5144223564657
2233,356.126128770283
5265,133466.99861746157
2,3,10, 3, 0,12, 0.00,60.00,Wednesday
2232,473.6475749427925
2233,315.68152800045888
5265,164885.22982251386
2,3,10, 3, 0,13, 0.00,60.00,Wednesday
2232,413.6669070250609
2233,273.1185349929167
5265,155895.84815739288
2,3,10, 3, 0,14, 0.00,60.00,Wednesday
2232,360.57781526587015
2233,233.64049782558684
5265,152953.2584435114
2,3,10, 3, 0,15, 0.00,60.00,Wednesday
2232,332.9160249744462
2233,210.87472628003523
5265,158430.76462878925
2,3,10, 3, 0,16, 0.00,60.00,Wednesday
2232,266.67511022945919
2233,167.340368135633
5265,123689.40236287425
2,3,10, 3, 0,17, 0.00,60.00,Wednesday
2232,140.11152868477698
2233,87.10574087922832
5265,68641.87615896687
2,3,10, 3, 0,18, 0.00,60.00,Wednesday
2232,16.800630884796619
2233,10.29744016274252
5265,52189.27514080168
2,3,10, 3, 0,19, 0.00,60.00,Wednesday
2232,0.0
2233,0.0
5265,22665.831820035444
2,3,10, 3, 0,20, 0.00,60.00,Wednesday
2232,0.0
2233,0.0
5265,9043.168982406913
2,3,10, 3, 0,21, 0.00,60.00,Wednesday
2232,0.0
2233,0.0
5265,8520.475370207962
2,3,10, 3, 0,22, 0.00,60.00,Wednesday
2232,0.0
2233,0.0
5265,8100.672502758949
2,3,10, 3, 0,23, 0.00,60.00,Wednesday
2232,0.0
2233,0.0
5265,8126.978242122001
2,3,10, 3, 0,24, 0.00,60.00,Wednesday
2232,0.0
2233,0.0
5265,8124.365848511068
2,4,10, 4, 0, 1, 0.00,60.00,Thursday
2232,0.0
2233,0.0
5265,8060.245677732455
2,4,10, 4, 0, 2, 0.00,60.00,Thursday
2232,0.0
2233,0.0
5265,7985.0548774862555
2,4,10, 4, 0, 3, 0.00,60.00,Thursday
2232,0.0
2233,0.0
5265,7924.356628214905
2,4,10, 4, 0, 4, 0.00,60.00,Thursday
2232,0.0
2233,0.0
5265,7909.207559840378
2,4,10, 4, 0, 5, 0.00,60.00,Thursday
2232,0.0
2233,0.0
5265,7907.254894739054
2,4,10, 4, 0, 6, 0.00,60.00,Thursday
2232,66.58454075259246
2233,26.127151779720156
5265,7929.302935569056
2,4,10, 4, 0, 7, 0.00,60.00,Thursday
2232,421.16110682772236
2233,167.98103993291978
5265,8000.980985159746
2,4,10, 4, 0, 8, 0.00,60.00,Thursday
2232,503.3262621789824
2233,315.8308092439519
5265,22700.72155362889
2,4,10, 4, 0, 9, 0.00,60.00,Thursday
2232,610.0538497760084
2233,385.7627229449019
5265,96413.77052733943
2,4,10, 4, 0,10, 0.00,60.00,Thursday
2232,601.2857680310509
2233,387.74206527810977
5265,132216.6008294253
2,4,10, 4, 0,11, 0.00,60.00,Thursday
2232,537.093060349116
2233,354.55598458337325
5265,157496.03587683265
2,4,10, 4, 0,12, 0.00,60.00,Thursday
2232,489.29067131864846
2233,326.6204370897501
5265,161824.1910705235
2,4,10, 4, 0,13, 0.00,60.00,Thursday
2232,462.8841254524846
2233,305.9936854497999
5265,164422.44411525236
2,4,10, 4, 0,14, 0.00,60.00,Thursday
2232,434.8995294235214
2233,280.7497094900842
5265,176311.94640655805
2,4,10, 4, 0,15, 0.00,60.00,Thursday
2232,393.86208976803797
2233,248.73012662440338
5265,165973.6492244501
2,4,10, 4, 0,16, 0.00,60.00,Thursday
2232,293.3593653853214
2233,182.39182989345248
5265,172266.27029975723
2,4,10, 4, 0,17, 0.00,60.00,Thursday
2232,150.05699449014376
2233,92.38289194664998
5265,160454.3946169028
2,4,10, 4, 0,18, 0.00,60.00,Thursday
2232,19.813066733411515
2233,12.064599581839028
5265,87298.28440074984
2,4,10, 4, 0,19, 0.00,60.00,Thursday
2232,0.0
2233,0.0
5265,62352.45226679617
2,4,10, 4, 0,20, 0.00,60.00,Thursday
2232,0.0
2233,0.0
5265,44481.81365281241
2,4,10, 4, 0,21, 0.00,60.00,Thursday
2232,0.0
2233,0.0
5265,8250.419480336404
2,4,10, 4, 0,22, 0.00,60.00,Thursday
2232,0.0
2233,0.0
5265,8238.360843048538
2,4,10, 4, 0,23, 0.00,60.00,Thursday
2232,0.0
2233,0.0
5265,8235.496406499775
2,4,10, 4, 0,24, 0.00,60.00,Thursday
2232,0.0
2233,0.0
5265,8191.882756048563
2,5,10, 5, 0, 1, 0.00,60.00,Friday
2232,0.0
2233,0.0
5265,8095.206772814917
2,5,10, 5, 0, 2, 0.00,60.00,Friday
2232,0.0
2233,0.0
5265,7996.323249992221
2,5,10, 5, 0, 3, 0.00,60.00,Friday
2232,0.0
2233,0.0
5265,7931.840545747746
2,5,10, 5, 0, 4, 0.00,60.00,Friday
2232,0.0
2233,0.0
5265,7915.329472777436
2,5,10, 5, 0, 5, 0.00,60.00,Friday
2232,0.0
2233,0.0
5265,7907.040288792581
2,5,10, 5, 0, 6, 0.00,60.00,Friday
2232,95.15101069325113
2233,36.48267940705217
5265,7922.972001138162
2,5,10, 5, 0, 7, 0.00,60.00,Friday
2232,620.0093368566102
2233,225.47244868010126
5265,7981.209672108217
2,5,10, 5, 0, 8, 0.00,60.00,Friday
2232,550.7934841513332
2233,344.2396312581971
5265,28014.380316179497
2,5,10, 5, 0, 9, 0.00,60.00,Friday
2232,633.6104482054592
2233,399.4988227033071
5265,70319.01216192164
2,5,10, 5, 0,10, 0.00,60.00,Friday
2232,593.1243589970481
2233,382.4087726420721
5265,137594.93103974139
2,5,10, 5, 0,11, 0.00,60.00,Friday
2232,527.808715980551
2233,348.4002316060527
5265,136158.9478709906
2,5,10, 5, 0,12, 0.00,60.00,Friday
2232,465.84743984683157
2233,312.48263082411298
5265,142519.65220258226
2,5,10, 5, 0,13, 0.00,60.00,Friday
2232,465.37060587161747
2233,307.4250818838828
5265,156296.46167873266
2,5,10, 5, 0,14, 0.00,60.00,Friday
2232,499.9622606683222
2233,319.86183254733347
5265,166606.7512950498
2,5,10, 5, 0,15, 0.00,60.00,Friday
2232,458.76394292379379
2233,285.19643303133577
5265,145363.70663904245
2,5,10, 5, 0,16, 0.00,60.00,Friday
2232,308.54075598998846
2233,189.42485748630123
5265,126677.22159536423
2,5,10, 5, 0,17, 0.00,60.00,Friday
2232,148.35752916502805
2233,91.20094227574772
5265,117316.33943341281
2,5,10, 5, 0,18, 0.00,60.00,Friday
2232,16.310543679421519
2233,9.960099075363475
5265,55630.456451637205
2,5,10, 5, 0,19, 0.00,60.00,Friday
2232,0.0
2233,0.0
5265,29414.28550229617
2,5,10, 5, 0,20, 0.00,60.00,Friday
2232,0.0
2233,0.0
5265,18544.724003834835
2,5,10, 5, 0,21, 0.00,60.00,Friday
2232,0.0
2233,0.0
5265,13414.022135361987
2,5,10, 5, 0,22, 0.00,60.00,Friday
2232,0.0
2233,0.0
5265,8304.737795426134
2,5,10, 5, 0,23, 0.00,60.00,Friday
2232,0.0
2233,0.0
5265,8277.06456427606
2,5,10, 5, 0,24, 0.00,60.00,Friday
2232,0.0
2233,0.0
5265,8254.17180377928
2,6,10, 6, 0, 1, 0.00,60.00,Saturday
2232,0.0
2233,0.0
5265,8229.446580469854
2,6,10, 6, 0, 2, 0.00,60.00,Saturday
2232,0.0
2233,0.0
5265,8214.045773782507
2,6,10, 6, 0, 3, 0.00,60.00,Saturday
2232,0.0
2233,0.0
5265,8188.439434952014
2,6,10, 6, 0, 4, 0.00,60.00,Saturday
2232,0.0
2233,0.0
5265,8167.347067399972
2,6,10, 6, 0, 5, 0.00,60.00,Saturday
2232,0.0
2233,0.0
5265,8150.21143241839
2,6,10, 6, 0, 6, 0.00,60.00,Saturday
2232,41.91871867471675
2233,18.891489990808766
5265,8125.042761609343
2,6,10, 6, 0, 7, 0.00,60.00,Saturday
2232,257.63626312618995
2233,117.75702037930728
5265,8090.025037488941
2,6,10, 6, 0, 8, 0.00,60.00,Saturday
2232,373.6044615402646
2233,234.38686543259193
5265,8086.386202760589
2,6,10, 6, 0, 9, 0.00,60.00,Saturday
2232,567.2909160999689
2233,358.80718820994397
5265,42058.63928884817
2,6,10, 6, 0,10, 0.00,60.00,Saturday
2232,600.5124859676711
2233,387.2143177465828
5265,62932.418488514806
2,6,10, 6, 0,11, 0.00,60.00,Saturday
2232,540.2927193506993
2233,356.8212294526804
5265,77404.97701548827
2,6,10, 6, 0,12, 0.00,60.00,Saturday
2232,498.4047584458676
2233,333.39456889956775
5265,71536.0372369414
2,6,10, 6, 0,13, 0.00,60.00,Saturday
2232,470.3159792067011
2233,311.1782552152262
5265,60062.070373200004
2,6,10, 6, 0,14, 0.00,60.00,Saturday
2232,436.92904052554266
2233,282.0440900284654
5265,52687.48998156621
2,6,10, 6, 0,15, 0.00,60.00,Saturday
2232,380.93263903167266
2233,240.62943971714027
5265,52984.187891632704
2,6,10, 6, 0,16, 0.00,60.00,Saturday
2232,278.26533205246377
2233,174.0592015037474
5265,47828.87974616556
2,6,10, 6, 0,17, 0.00,60.00,Saturday
2232,139.44348157527365
2233,86.30075588768068
5265,39151.455718142315
2,6,10, 6, 0,18, 0.00,60.00,Saturday
2232,14.259923681402123
2233,8.736881809731747
5265,35235.72845978663
2,6,10, 6, 0,19, 0.00,60.00,Saturday
2232,0.0
2233,0.0
5265,28441.657712200835
2,6,10, 6, 0,20, 0.00,60.00,Saturday
2232,0.0
2233,0.0
5265,11605.641480478407
2,6,10, 6, 0,21, 0.00,60.00,Saturday
2232,0.0
2233,0.0
5265,11478.671047145292
2,6,10, 6, 0,22, 0.00,60.00,Saturday
2232,0.0
2233,0.0
5265,8658.961778557297
2,6,10, 6, 0,23, 0.00,60.00,Saturday
2232,0.0
2233,0.0
5265,8334.406959672671
2,6,10, 6, 0,24, 0.00,60.00,Saturday
2232,0.0
2233,0.0
5265,8165.173672587091
2,7,10, 7, 0, 1, 0.00,60.00,Sunday
2232,0.0
2233,0.0
5265,8112.772636016136
2,7,10, 7, 0, 2, 0.00,60.00,Sunday
2232,0.0
2233,0.0
5265,8091.682416000374
2,7,10, 7, 0, 3, 0.00,60.00,Sunday
2232,0.0
2233,0.0
5265,8063.982757300689
2,7,10, 7, 0, 4, 0.00,60.00,Sunday
2232,0.0
2233,0.0
5265,8020.335031423824
2,7,10, 7, 0, 5, 0.00,60.00,Sunday
2232,0.0
2233,0.0
5265,7973.107022768568
2,7,10, 7, 0, 6, 0.00,60.00,Sunday
2232,44.4053570448174
2233,19.442574260483128
5265,7953.679509726105
2,7,10, 7, 0, 7, 0.00,60.00,Sunday
2232,280.11509027172
2233,125.35704673406922
5265,7998.8555598905805
2,7,10, 7, 0, 8, 0.00,60.00,Sunday
2232,409.25097156391959
2233,257.23100652686437
5265,8087.067408108924
2,7,10, 7, 0, 9, 0.00,60.00,Sunday
2232,539.2815630860822
2233,341.0819658149869
5265,8195.043180531668
2,7,10, 7, 0,10, 0.00,60.00,Sunday
2232,551.1565097841362
2233,355.32904899922877
5265,8298.517559930124
2,7,10, 7, 0,11, 0.00,60.00,Sunday
2232,502.99342745517517
2233,331.5543668118251
5265,8361.44565579733
2,7,10, 7, 0,12, 0.00,60.00,Sunday
2232,454.59233912007138
2233,302.67255182467837
5265,8363.0916942529
2,7,10, 7, 0,13, 0.00,60.00,Sunday
2232,430.77230315832738
2233,284.36600517761368
5265,8304.506965285342
2,7,10, 7, 0,14, 0.00,60.00,Sunday
2232,400.25401771933488
2233,258.4231955112527
5265,8242.368082581888
2,7,10, 7, 0,15, 0.00,60.00,Sunday
2232,362.83203628509986
2233,229.4405158857567
5265,8227.590721096263
2,7,10, 7, 0,16, 0.00,60.00,Sunday
2232,268.33895561917327
2233,168.17380641152929
5265,8282.874299464771
2,7,10, 7, 0,17, 0.00,60.00,Sunday
2232,134.56645639976456
2233,83.56886605199408
5265,8346.15362769769
2,7,10, 7, 0,18, 0.00,60.00,Sunday
2232,13.74863444005271
2233,8.441509072196313
5265,8381.194342424771
2,7,10, 7, 0,19, 0.00,60.00,Sunday
2232,0.0
2233,0.0
5265,8346.99225221711
2,7,10, 7, 0,20, 0.00,60.00,Sunday
2232,0.0
2233,0.0
5265,8292.675426814672
2,7,10, 7, 0,21, 0.00,60.00,Sunday
2232,0.0
2233,0.0
5265,8241.201722862339
2,7,10, 7, 0,22, 0.00,60.00,Sunday
2232,0.0
2233,0.0
5265,8182.7270854134185
2,7,10, 7, 0,23, 0.00,60.00,Sunday
2232,0.0
2233,0.0
5265,8116.935100490799
2,7,10, 7, 0,24, 0.00,60.00,Sunday
2232,0.0
2233,0.0
5265,8073.460083694924
2,8,10, 8, 0, 1, 0.00,60.00,Monday
2232,0.0
2233,0.0
5265,7700.771571592064
2,8,10, 8, 0, 2, 0.00,60.00,Monday
2232,0.0
2233,0.0
5265,7745.2120279901255
2,8,10, 8, 0, 3, 0.00,60.00,Monday
2232,0.0
2233,0.0
5265,7692.45577994639
2,8,10, 8, 0, 4, 0.00,60.00,Monday
2232,0.0
2233,0.0
5265,7618.318361693061
2,8,10, 8, 0, 5, 0.00,60.00,Monday
2232,0.0
2233,0.0
5265,7550.809123135042
2,8,10, 8, 0, 6, 0.00,60.00,Monday
2232,48.772598327559709
2233,20.794667229138054
5265,7497.418424476993
2,8,10, 8, 0, 7, 0.00,60.00,Monday
2232,294.2391419445598
2233,127.78691007307588
5265,7473.771178989881
2,8,10, 8, 0, 8, 0.00,60.00,Monday
2232,381.95532243780039
2233,239.96216753488515
5265,29277.84489993137
2,8,10, 8, 0, 9, 0.00,60.00,Monday
2232,528.0193106517044
2233,334.03526665746048
5265,60368.1993224339
2,8,10, 8, 0,10, 0.00,60.00,Monday
2232,553.9340967324537
2233,357.13716789480307
5265,88311.49903127004
2,8,10, 8, 0,11, 0.00,60.00,Monday
2232,513.136851395397
2233,338.4430531424871
5265,90520.99822065437
2,8,10, 8, 0,12, 0.00,60.00,Monday
2232,458.39349823923996
2233,305.28911584764048
5265,129792.12710571669
2,8,10, 8, 0,13, 0.00,60.00,Monday
2232,411.9382485166522
2233,271.94237005075817
5265,132443.53446067879
2,8,10, 8, 0,14, 0.00,60.00,Monday
2232,349.7810404570792
2233,226.7593770657652
5265,165532.98591288634
2,8,10, 8, 0,15, 0.00,60.00,Monday
2232,283.7242960473376
2233,180.74340680172325
5265,174822.41050804684
2,8,10, 8, 0,16, 0.00,60.00,Monday
2232,197.80695874579883
2233,125.07587122858308
5265,156185.77010739383
2,8,10, 8, 0,17, 0.00,60.00,Monday
2232,95.27131541249433
2233,60.692908815669238
5265,135130.91527428138
2,8,10, 8, 0,18, 0.00,60.00,Monday
2232,9.836631820375964
2233,6.229267663827335
5265,52373.42386057368
2,8,10, 8, 0,19, 0.00,60.00,Monday
2232,0.0
2233,0.0
5265,25742.620692718116
2,8,10, 8, 0,20, 0.00,60.00,Monday
2232,0.0
2233,0.0
5265,10856.941107659915
2,8,10, 8, 0,21, 0.00,60.00,Monday
2232,0.0
2233,0.0
5265,8428.072593938568
2,8,10, 8, 0,22, 0.00,60.00,Monday
2232,0.0
2233,0.0
5265,7979.515682895842
2,8,10, 8, 0,23, 0.00,60.00,Monday
2232,0.0
2233,0.0
5265,7943.407181090675
2,8,10, 8, 0,24, 0.00,60.00,Monday
2232,0.0
2233,0.0
5265,7915.20958800906
2,9,10, 9, 0, 1, 0.00,60.00,Tuesday
2232,0.0
2233,0.0
5265,7120.5915495956
2,9,10, 9, 0, 2, 0.00,60.00,Tuesday
2232,0.0
2233,0.0
5265,7209.060658572204
2,9,10, 9, 0, 3, 0.00,60.00,Tuesday
2232,0.0
2233,0.0
5265,7156.0524311713125
2,9,10, 9, 0, 4, 0.00,60.00,Tuesday
2232,0.0
2233,0.0
5265,7082.27549654003
2,9,10, 9, 0, 5, 0.00,60.00,Tuesday
2232,0.0
2233,0.0
5265,7004.165349128461
2,9,10, 9, 0, 6, 0.00,60.00,Tuesday
2232,94.15457704052933
2233,36.50025175137868
5265,7131.557591274628
2,9,10, 9, 0, 7, 0.00,60.00,Tuesday
2232,640.2752791124102
2233,235.23097656517886
5265,7521.2229145925885
2,9,10, 9, 0, 8, 0.00,60.00,Tuesday
2232,659.1965586319492
2233,402.48313673216787
5265,20824.87459793616
2,9,10, 9, 0, 9, 0.00,60.00,Tuesday
2232,771.9234126397041
2233,479.4827811909226
5265,73756.13269972452
2,9,10, 9, 0,10, 0.00,60.00,Tuesday
2232,719.8443004922034
2233,458.17556652859096
5265,105930.40578041096
2,9,10, 9, 0,11, 0.00,60.00,Tuesday
2232,588.4472400406104
2233,386.2809764042725
5265,114656.41314901097
2,9,10, 9, 0,12, 0.00,60.00,Tuesday
2232,499.86327655483839
2233,334.7787369043264
5265,152615.40390270897
2,9,10, 9, 0,13, 0.00,60.00,Tuesday
2232,494.1873012648668
2233,326.5602883336555
5265,144445.8509896216
2,9,10, 9, 0,14, 0.00,60.00,Tuesday
2232,497.2329091449001
2233,318.35375235776527
5265,168170.7957751843
2,9,10, 9, 0,15, 0.00,60.00,Tuesday
2232,418.0707253936018
2233,260.1946901533084
5265,147194.30467866807
2,9,10, 9, 0,16, 0.00,60.00,Tuesday
2232,280.70865084274518
2233,174.74925696708196
5265,149761.6536268493
2,9,10, 9, 0,17, 0.00,60.00,Tuesday
2232,116.39464245314496
2233,73.3283768698394
5265,125507.83279368289
2,9,10, 9, 0,18, 0.00,60.00,Tuesday
2232,10.99085461863553
2233,6.886202702868221
5265,111275.59807797359
2,9,10, 9, 0,19, 0.00,60.00,Tuesday
2232,0.0
2233,0.0
5265,66395.64673134801
2,9,10, 9, 0,20, 0.00,60.00,Tuesday
2232,0.0
2233,0.0
5265,32350.15317562237
2,9,10, 9, 0,21, 0.00,60.00,Tuesday
2232,0.0
2233,0.0
5265,8656.830151107755
2,9,10, 9, 0,22, 0.00,60.00,Tuesday
2232,0.0
2233,0.0
5265,8394.976009909158
2,9,10, 9, 0,23, 0.00,60.00,Tuesday
2232,0.0
2233,0.0
5265,8304.569351438606
2,9,10, 9, 0,24, 0.00,60.00,Tuesday
2232,0.0
2233,0.0
5265,8258.633443928307
2,10,10,10, 0, 1, 0.00,60.00,Wednesday
2232,0.0
2233,0.0
5265,8229.035587689104
2,10,10,10, 0, 2, 0.00,60.00,Wednesday
2232,0.0
2233,0.0
5265,8203.793163465934
2,10,10,10, 0, 3, 0.00,60.00,Wednesday
2232,0.0
2233,0.0
5265,8174.521310340281
2,10,10,10, 0, 4, 0.00,60.00,Wednesday
2232,0.0
2233,0.0
5265,8125.456259642415
2,10,10,10, 0, 5, 0.00,60.00,Wednesday
2232,0.0
2233,0.0
5265,8006.01816211523
2,10,10,10, 0, 6, 0.00,60.00,Wednesday
2232,50.2396610090856
2233,21.48176437421074
5265,8027.041098091223
2,10,10,10, 0, 7, 0.00,60.00,Wednesday
2232,298.26753446135299
2233,129.65668882404939
5265,8195.323882729324
2,10,10,10, 0, 8, 0.00,60.00,Wednesday
2232,374.59728742648897
2233,234.94704417052496
5265,25401.093808891106
2,10,10,10, 0, 9, 0.00,60.00,Wednesday
2232,566.9326532909633
2233,358.4677664611132
5265,81059.40467789503
2,10,10,10, 0,10, 0.00,60.00,Wednesday
2232,596.6196195420663
2233,384.6551005085856
5265,113668.28831425817
2,10,10,10, 0,11, 0.00,60.00,Wednesday
2232,530.5455437608435
2233,350.5461473223001
5265,135718.55638765024
2,10,10,10, 0,12, 0.00,60.00,Wednesday
2232,430.4909783611202
2233,289.47780820400097
5265,171932.80738964678
2,10,10,10, 0,13, 0.00,60.00,Wednesday
2232,463.4647829595577
2233,306.06838212793499
5265,172176.8923566023
2,10,10,10, 0,14, 0.00,60.00,Wednesday
2232,487.43452390165569
2233,311.5966959473189
5265,172376.13604443617
2,10,10,10, 0,15, 0.00,60.00,Wednesday
2232,455.93643549319196
2233,283.61346532261248
5265,178799.15024260965
2,10,10,10, 0,16, 0.00,60.00,Wednesday
2232,346.9103829910884
2233,212.53275459494595
5265,145204.01779587699
2,10,10,10, 0,17, 0.00,60.00,Wednesday
2232,179.0020567304583
2233,108.97360103082052
5265,83762.77910763545
2,10,10,10, 0,18, 0.00,60.00,Wednesday
2232,18.887285624479426
2233,11.34192237049532
5265,52929.779003129224
2,10,10,10, 0,19, 0.00,60.00,Wednesday
2232,0.0
2233,0.0
5265,23338.911972433027
2,10,10,10, 0,20, 0.00,60.00,Wednesday
2232,0.0
2233,0.0
5265,9365.682073321525
2,10,10,10, 0,21, 0.00,60.00,Wednesday
2232,0.0
2233,0.0
5265,8908.760575751769
2,10,10,10, 0,22, 0.00,60.00,Wednesday
2232,0.0
2233,0.0
5265,8464.123618059764
2,10,10,10, 0,23, 0.00,60.00,Wednesday
2232,0.0
2233,0.0
5265,8432.466512968485
2,10,10,10, 0,24, 0.00,60.00,Wednesday
2232,0.0
2233,0.0
5265,8395.131578654298
2,11,10,11, 0, 1, 0.00,60.00,Thursday
2232,0.0
2233,0.0
5265,8344.516751920219
2,11,10,11, 0, 2, 0.00,60.00,Thursday
2232,0.0
2233,0.0
5265,8283.973074893398
2,11,10,11, 0, 3, 0.00,60.00,Thursday
2232,0.0
2233,0.0
5265,8244.031929203144
2,11,10,11, 0, 4, 0.00,60.00,Thursday
2232,0.0
2233,0.0
5265,8217.444576781325
2,11,10,11, 0, 5, 0.00,60.00,Thursday
2232,0.0
2233,0.0
5265,8191.053849850247
2,11,10,11, 0, 6, 0.00,60.00,Thursday
2232,58.65437482642176
2233,24.088533836453708
5265,8212.638669889111
2,11,10,11, 0, 7, 0.00,60.00,Thursday
2232,355.15670501812277
2233,148.78764506689883
5265,8318.639162268935
2,11,10,11, 0, 8, 0.00,60.00,Thursday
2232,425.9333137928456
2233,267.6762579674958
5265,23844.941872967025
2,11,10,11, 0, 9, 0.00,60.00,Thursday
2232,544.6296971107244
2233,344.3386338968732
5265,114448.10334656855
2,11,10,11, 0,10, 0.00,60.00,Thursday
2232,554.3515791004477
2233,357.31122934433236
5265,148920.25597647075
2,11,10,11, 0,11, 0.00,60.00,Thursday
2232,514.7155572166427
2233,339.373225949167
5265,167482.7937966199
2,11,10,11, 0,12, 0.00,60.00,Thursday
2232,485.81776686521178
2233,324.2415399214309
5265,169462.73784741466
2,11,10,11, 0,13, 0.00,60.00,Thursday
2232,468.3214939506841
2233,309.93624026402116
5265,172214.68894950144
2,11,10,11, 0,14, 0.00,60.00,Thursday
2232,445.1575376938118
2233,287.0571184962257
5265,184391.56150986497
2,11,10,11, 0,15, 0.00,60.00,Thursday
2232,388.9291493728581
2233,245.61612802284572
5265,180401.53275720255
2,11,10,11, 0,16, 0.00,60.00,Thursday
2232,275.212973932239
2233,171.7733864568487
5265,182044.1450029692
2,11,10,11, 0,17, 0.00,60.00,Thursday
2232,131.24671798027715
2233,81.26421541048143
5265,168454.46572894808
2,11,10,11, 0,18, 0.00,60.00,Thursday
2232,13.364128526257739
2233,8.1969265498698
5265,88505.85203977418
2,11,10,11, 0,19, 0.00,60.00,Thursday
2232,0.0
2233,0.0
5265,63660.93665239619
2,11,10,11, 0,20, 0.00,60.00,Thursday
2232,0.0
2233,0.0
5265,45720.00231697888
2,11,10,11, 0,21, 0.00,60.00,Thursday
2232,0.0
2233,0.0
5265,8469.398074218532
2,11,10,11, 0,22, 0.00,60.00,Thursday
2232,0.0
2233,0.0
5265,8423.894726082908
2,11,10,11, 0,23, 0.00,60.00,Thursday
2232,0.0
2233,0.0
5265,8382.4263712918
2,11,10,11, 0,24, 0.00,60.00,Thursday
2232,0.0
2233,0.0
5265,8335.936121752626
2,12,10,12, 0, 1, 0.00,60.00,Friday
2232,0.0
2233,0.0
5265,8264.511717651383
2,12,10,12, 0, 2, 0.00,60.00,Friday
2232,0.0
2233,0.0
5265,8186.135222060075
2,12,10,12, 0, 3, 0.00,60.00,Friday
2232,0.0
2233,0.0
5265,8152.346726304557
2,12,10,12, 0, 4, 0.00,60.00,Friday
2232,0.0
2233,0.0
5265,8188.770379961229
2,12,10,12, 0, 5, 0.00,60.00,Friday
2232,0.0
2233,0.0
5265,8226.176591605361
2,12,10,12, 0, 6, 0.00,60.00,Friday
2232,54.97141094216065
2233,22.92706581941069
5265,8260.891523403945
2,12,10,12, 0, 7, 0.00,60.00,Friday
2232,343.76095119107279
2233,145.54700040228793
5265,8331.120137556709
2,12,10,12, 0, 8, 0.00,60.00,Friday
2232,435.38009810814818
2233,273.87479026710448
5265,29224.685340325046
2,12,10,12, 0, 9, 0.00,60.00,Friday
2232,561.4634516285453
2233,354.9754649488314
5265,92036.87287683533
2,12,10,12, 0,10, 0.00,60.00,Friday
2232,569.0545780992194
2233,366.7423661598648
5265,150659.9590590146
2,12,10,12, 0,11, 0.00,60.00,Friday
2232,519.7507014100364
2233,342.8227835874662
5265,149064.83924245466
2,12,10,12, 0,12, 0.00,60.00,Friday
2232,477.4542494229581
2233,318.43390291471146
5265,151911.01684419963
2,12,10,12, 0,13, 0.00,60.00,Friday
2232,451.1321768520236
2233,298.08098354671719
5265,161246.28561322523
2,12,10,12, 0,14, 0.00,60.00,Friday
2232,424.49855474196098
2233,274.03912759935028
5265,168624.99140850086
2,12,10,12, 0,15, 0.00,60.00,Friday
2232,369.3075902167025
2233,233.35711231808683
5265,148984.69100767835
2,12,10,12, 0,16, 0.00,60.00,Friday
2232,266.3512473686428
2233,166.79281022759094
5265,131967.6763847257
2,12,10,12, 0,17, 0.00,60.00,Friday
2232,124.43096180003232
2233,77.48947550154162
5265,122254.06469989226
2,12,10,12, 0,18, 0.00,60.00,Friday
2232,12.322631741439777
2233,7.591009286704836
5265,56022.65632710729
2,12,10,12, 0,19, 0.00,60.00,Friday
2232,0.0
2233,0.0
5265,29689.97272809756
2,12,10,12, 0,20, 0.00,60.00,Friday
2232,0.0
2233,0.0
5265,18675.157824689173
2,12,10,12, 0,21, 0.00,60.00,Friday
2232,0.0
2233,0.0
5265,13467.812602408218
2,12,10,12, 0,22, 0.00,60.00,Friday
2232,0.0
2233,0.0
5265,8283.892801662207
2,12,10,12, 0,23, 0.00,60.00,Friday
2232,0.0
2233,0.0
5265,8186.292397688251
2,12,10,12, 0,24, 0.00,60.00,Friday
2232,0.0
2233,0.0
5265,8118.627805074569
2,13,10,13, 0, 1, 0.00,60.00,Saturday
2232,0.0
2233,0.0
5265,8108.414351134211
2,13,10,13, 0, 2, 0.00,60.00,Saturday
2232,0.0
2233,0.0
5265,8111.490549122773
2,13,10,13, 0, 3, 0.00,60.00,Saturday
2232,0.0
2233,0.0
5265,8114.530081733615
2,13,10,13, 0, 4, 0.00,60.00,Saturday
2232,0.0
2233,0.0
5265,8108.593200076921
2,13,10,13, 0, 5, 0.00,60.00,Saturday
2232,0.0
2233,0.0
5265,8102.801054807721
2,13,10,13, 0, 6, 0.00,60.00,Saturday
2232,58.76778014612467
2233,24.063847592551516
5265,8132.4947235813825
2,13,10,13, 0, 7, 0.00,60.00,Saturday
2232,355.15632584490398
2233,148.4516645681206
5265,8241.252406074957
2,13,10,13, 0, 8, 0.00,60.00,Saturday
2232,426.32677830253928
2233,267.9840743381524
5265,8386.178892149743
2,13,10,13, 0, 9, 0.00,60.00,Saturday
2232,559.3448913533872
2233,353.6297060127719
5265,58373.32596806306
2,13,10,13, 0,10, 0.00,60.00,Saturday
2232,573.2761005958467
2233,369.45728410902447
5265,82976.19788644194
2,13,10,13, 0,11, 0.00,60.00,Saturday
2232,523.5604698842166
2233,345.41110365000108
5265,93944.89571905507
2,13,10,13, 0,12, 0.00,60.00,Saturday
2232,482.9916783266205
2233,322.46695056526979
5265,84461.18877005419
2,13,10,13, 0,13, 0.00,60.00,Saturday
2232,461.24122970394247
2233,305.0915642381951
5265,64054.98782280532
2,13,10,13, 0,14, 0.00,60.00,Saturday
2232,440.02188970387246
2233,284.12841076294048
5265,57461.95577778094
2,13,10,13, 0,15, 0.00,60.00,Saturday
2232,381.87943034347946
2233,241.18094945911057
5265,57597.390666200845
2,13,10,13, 0,16, 0.00,60.00,Saturday
2232,273.9002313766337
2233,170.75443442978398
5265,51791.22756704006
2,13,10,13, 0,17, 0.00,60.00,Saturday
2232,127.51967320909405
2233,79.0576023709231
5265,42198.67781425165
2,13,10,13, 0,18, 0.00,60.00,Saturday
2232,12.643794000167257
2233,7.757655980744235
5265,36060.23411647522
2,13,10,13, 0,19, 0.00,60.00,Saturday
2232,0.0
2233,0.0
5265,28645.982240586793
2,13,10,13, 0,20, 0.00,60.00,Saturday
2232,0.0
2233,0.0
5265,12673.554153552186
2,13,10,13, 0,21, 0.00,60.00,Saturday
2232,0.0
2233,0.0
5265,12506.713688496066
2,13,10,13, 0,22, 0.00,60.00,Saturday
2232,0.0
2233,0.0
5265,8685.216597772394
2,13,10,13, 0,23, 0.00,60.00,Saturday
2232,0.0
2233,0.0
5265,8440.739820521716
2,13,10,13, 0,24, 0.00,60.00,Saturday
2232,0.0
2233,0.0