Program Version,EnergyPlus, Version 8.7.0-78a111df4a, YMD=2019.11.22 13:19
1,5,Environment Title[],Latitude[deg],Longitude[deg],Time Zone[],Elevation[m]
2,6,Day of Simulation[],Month[],Day of Month[],DST Indicator[1=yes 0=no],Hour[],StartMinute[],EndMinute[],DayType
3,3,Cumulative Day of Simulation[],Month[],Day of Month[],DST Indicator[1=yes 0=no],DayType  ! When Daily Report Variables Requested
4,2,Cumulative Days of Simulation[],Month[]  ! When Monthly Report Variables Requested
5,1,Cumulative Days of Simulation[] ! When Run Period Report Variables Requested
2232,1,AF305DAYLIGHINGCONTROL,Daylighting Reference Point 1 Illuminance [lux] !Hourly
2233,1,AF305DAYLIGHINGCONTROL,Daylighting Reference Point 2 Illuminance [lux] !Hourly
5265,1,Whole Building,Facility Total Electric Demand Power [W] !Hourly
End of Data Dictionary
1,RUNPERIOD,  10.30, 123.97,   8.00,  24.00
2,1,10, 1, 0, 1, 0.00,60.00,Monday
2232,0.0
2233,0.0
5265,7963.017272001282
2,1,10, 1, 0, 2, 0.00,60.00,Monday
2232,0.0
2233,0.0
5265,7877.944968411619
2,1,10, 1, 0, 3, 0.00,60.00,Monday
2232,0.0
2233,0.0
5265,7740.801417253136
2,1,10, 1, 0, 4, 0.00,60.00,Monday
2232,0.0
2233,0.0
5265,7672.267153196008
2,1,10, 1, 0, 5, 0.00,60.00,Monday
2232,0.0
2233,0.0
5265,7608.173297778648
2,1,10, 1, 0, 6, 0.00,60.00,Monday
2232,17.81231894618956
2233,6.359453182137538
5265,7667.6595646182
2,1,10, 1, 0, 7, 0.00,60.00,Monday
2232,121.35358473052003
2233,38.21629455314231
5265,7805.949225552012
2,1,10, 1, 0, 8, 0.00,60.00,Monday
2232,97.62268848491944
2233,58.3741466881204
5265,29706.342257138924
2,1,10, 1, 0, 9, 0.00,60.00,Monday
2232,109.54009291341574
2233,67.3468095325227
5265,61874.24681707583
2,1,10, 1, 0,10, 0.00,60.00,Monday
2232,101.5003666894532
2233,64.19932385024824
5265,96309.80478936382
2,1,10, 1, 0,11, 0.00,60.00,Monday
2232,82.60172183818081
2233,53.94385405631399
5265,98030.95370563143
2,1,10, 1, 0,12, 0.00,60.00,Monday
2232,64.75094306872346
2233,43.23821902046466
5265,141694.39927415169
2,1,10, 1, 0,13, 0.00,60.00,Monday
2232,63.88802242296189
2233,42.09704511947614
5265,145111.92594510859
2,1,10, 1, 0,14, 0.00,60.00,Monday
2232,61.615673491612309
2233,39.55906080864646
5265,170382.44821892796
2,1,10, 1, 0,15, 0.00,60.00,Monday
2232,48.462838986503587
2233,30.480379250308834
5265,177616.67556937345
2,1,10, 1, 0,16, 0.00,60.00,Monday
2232,31.757191106337996
2233,19.876263010659018
5265,158774.61786176565
2,1,10, 1, 0,17, 0.00,60.00,Monday
2232,12.93018237940654
2233,8.20462642928078
5265,137267.5701978904
2,1,10, 1, 0,18, 0.00,60.00,Monday
2232,1.4672832553000695
2233,0.9300089015584722
5265,52789.03110526993
2,1,10, 1, 0,19, 0.00,60.00,Monday
2232,0.0
2233,0.0
5265,26000.55588710556
2,1,10, 1, 0,20, 0.00,60.00,Monday
2232,0.0
2233,0.0
5265,10994.510620013816
2,1,10, 1, 0,21, 0.00,60.00,Monday
2232,0.0
2233,0.0
5265,8577.829551667242
2,1,10, 1, 0,22, 0.00,60.00,Monday
2232,0.0
2233,0.0
5265,8150.59601330973
2,1,10, 1, 0,23, 0.00,60.00,Monday
2232,0.0
2233,0.0
5265,8136.9201480324655
2,1,10, 1, 0,24, 0.00,60.00,Monday
2232,0.0
2233,0.0
5265,8119.429471205141
2,2,10, 2, 0, 1, 0.00,60.00,Tuesday
2232,0.0
2233,0.0
5265,7871.989536985077
2,2,10, 2, 0, 2, 0.00,60.00,Tuesday
2232,0.0
2233,0.0
5265,7779.889530858968
2,2,10, 2, 0, 3, 0.00,60.00,Tuesday
2232,0.0
2233,0.0
5265,7669.911163300875
2,2,10, 2, 0, 4, 0.00,60.00,Tuesday
2232,0.0
2233,0.0
5265,7553.677197479301
2,2,10, 2, 0, 5, 0.00,60.00,Tuesday
2232,0.0
2233,0.0
5265,7426.659325282028
2,2,10, 2, 0, 6, 0.00,60.00,Tuesday
2232,17.908063125270727
2233,6.483753207431008
5265,7538.586049274793
2,2,10, 2, 0, 7, 0.00,60.00,Tuesday
2232,123.24334300112459
2233,39.24319067783172
5265,7974.399664843698
2,2,10, 2, 0, 8, 0.00,60.00,Tuesday
2232,103.19990464947056
2233,60.85668012156767
5265,21087.60269106644
2,2,10, 2, 0, 9, 0.00,60.00,Tuesday
2232,113.15114466439219
2233,69.32290409954561
5265,82563.76969170138
2,2,10, 2, 0,10, 0.00,60.00,Tuesday
2232,103.52770021442869
2233,65.39060393473675
5265,115319.09781222265
2,2,10, 2, 0,11, 0.00,60.00,Tuesday
2232,80.33290989107498
2233,52.48541486160345
5265,121025.86507963711
2,2,10, 2, 0,12, 0.00,60.00,Tuesday
2232,66.72539266212344
2233,44.476069180150208
5265,151861.17695253765
2,2,10, 2, 0,13, 0.00,60.00,Tuesday
2232,64.30925640022493
2233,42.27190916540793
5265,136669.34117165485
2,2,10, 2, 0,14, 0.00,60.00,Tuesday
2232,54.5782758283249
2233,35.07065392067721
5265,154253.42383410608
2,2,10, 2, 0,15, 0.00,60.00,Tuesday
2232,45.38533093948089
2233,28.599156713774034
5265,130426.18854546525
2,2,10, 2, 0,16, 0.00,60.00,Tuesday
2232,31.85739667295478
2233,19.930919013522318
5265,135213.77790070963
2,2,10, 2, 0,17, 0.00,60.00,Tuesday
2232,16.16361893454555
2233,10.201048848409876
5265,111029.81926572095
2,2,10, 2, 0,18, 0.00,60.00,Tuesday
2232,1.823991933273965
2233,1.1440607622282928
5265,109442.80950072548
2,2,10, 2, 0,19, 0.00,60.00,Tuesday
2232,0.0
2233,0.0
5265,64257.629846997384
2,2,10, 2, 0,20, 0.00,60.00,Tuesday
2232,0.0
2233,0.0
5265,31289.917712876064
2,2,10, 2, 0,21, 0.00,60.00,Tuesday
2232,0.0
2233,0.0
5265,8631.990493445248
2,2,10, 2, 0,22, 0.00,60.00,Tuesday
2232,0.0
2233,0.0
5265,8386.292650869234
2,2,10, 2, 0,23, 0.00,60.00,Tuesday
2232,0.0
2233,0.0
5265,8335.223156199596
2,2,10, 2, 0,24, 0.00,60.00,Tuesday
2232,0.0
2233,0.0
5265,8295.605639180341
2,3,10, 3, 0, 1, 0.00,60.00,Wednesday
2232,0.0
2233,0.0
5265,8219.10815841262
2,3,10, 3, 0, 2, 0.00,60.00,Wednesday
2232,0.0
2233,0.0
5265,8122.282520187309
2,3,10, 3, 0, 3, 0.00,60.00,Wednesday
2232,0.0
2233,0.0
5265,7992.530025255056
2,3,10, 3, 0, 4, 0.00,60.00,Wednesday
2232,0.0
2233,0.0
5265,7930.962564568536
2,3,10, 3, 0, 5, 0.00,60.00,Wednesday
2232,0.0
2233,0.0
5265,7859.024199148723
2,3,10, 3, 0, 6, 0.00,60.00,Wednesday
2232,6.912147815574381
2233,2.930193162460251
5265,7900.038331615531
2,3,10, 3, 0, 7, 0.00,60.00,Wednesday
2232,42.85334881885493
2233,18.466838893007965
5265,8081.749050242851
2,3,10, 3, 0, 8, 0.00,60.00,Wednesday
2232,59.09854535567018
2233,36.924656639799788
5265,25186.879516356843
2,3,10, 3, 0, 9, 0.00,60.00,Wednesday
2232,83.06309286542587
2233,52.229149131544968
5265,75803.70104676538
2,3,10, 3, 0,10, 0.00,60.00,Wednesday
2232,84.81201061816613
2233,54.36311583226772
5265,112799.53827575244
2,3,10, 3, 0,11, 0.00,60.00,Wednesday
2232,75.99224897600735
2233,49.883027468097619
5265,133466.99861746157
2,3,10, 3, 0,12, 0.00,60.00,Wednesday
2232,66.70379007628024
2233,44.21344838324418
5265,164885.22982251386
2,3,10, 3, 0,13, 0.00,60.00,Wednesday
2232,58.26302608467139
2233,38.252607764068908
5265,155895.84815739288
2,3,10, 3, 0,14, 0.00,60.00,Wednesday
2232,50.79445286267228
2233,32.722494411205527
5265,152953.2584435114
2,3,10, 3, 0,15, 0.00,60.00,Wednesday
2232,46.90576752059832
2233,29.531735757381794
5265,158430.76462878925
2,3,10, 3, 0,16, 0.00,60.00,Wednesday
2232,37.58006511244907
2233,23.438595769429289
5265,123689.40236287425
2,3,10, 3, 0,17, 0.00,60.00,Wednesday
2232,19.74960152383989
2233,12.203608825657462
5265,68641.87615896687
2,3,10, 3, 0,18, 0.00,60.00,Wednesday
2232,2.368940443733026
2233,1.4431541943742985
5265,52189.27514080168
2,3,10, 3, 0,19, 0.00,60.00,Wednesday
2232,0.0
2233,0.0
5265,22665.831820035444
2,3,10, 3, 0,20, 0.00,60.00,Wednesday
2232,0.0
2233,0.0
5265,9043.168982406913
2,3,10, 3, 0,21, 0.00,60.00,Wednesday
2232,0.0
2233,0.0
5265,8520.475370207962
2,3,10, 3, 0,22, 0.00,60.00,Wednesday
2232,0.0
2233,0.0
5265,8100.672502758949
2,3,10, 3, 0,23, 0.00,60.00,Wednesday
2232,0.0
2233,0.0
5265,8126.978242122001
2,3,10, 3, 0,24, 0.00,60.00,Wednesday
2232,0.0
2233,0.0
5265,8124.365848511068
2,4,10, 4, 0, 1, 0.00,60.00,Thursday
2232,0.0
2233,0.0
5265,8060.245677732455
2,4,10, 4, 0, 2, 0.00,60.00,Thursday
2232,0.0
2233,0.0
5265,7985.0548774862555
2,4,10, 4, 0, 3, 0.00,60.00,Thursday
2232,0.0
2233,0.0
5265,7924.356628214905
2,4,10, 4, 0, 4, 0.00,60.00,Thursday
2232,0.0
2233,0.0
5265,7909.207559840378
2,4,10, 4, 0, 5, 0.00,60.00,Thursday
2232,0.0
2233,0.0
5265,7907.254894739054
2,4,10, 4, 0, 6, 0.00,60.00,Thursday
2232,9.415721542861519
2233,3.6523539539524587
5265,7929.302935569056
2,4,10, 4, 0, 7, 0.00,60.00,Thursday
2232,59.535543146866
2233,23.466562106517089
5265,8000.980985159746
2,4,10, 4, 0, 8, 0.00,60.00,Thursday
2232,70.93631530505498
2233,44.24453356043097
5265,22700.72155362889
2,4,10, 4, 0, 9, 0.00,60.00,Thursday
2232,85.98692327005341
2233,54.055808602483818
5265,96413.77052733943
2,4,10, 4, 0,10, 0.00,60.00,Thursday
2232,84.72686641798986
2233,54.32500757661692
5265,132216.6008294253
2,4,10, 4, 0,11, 0.00,60.00,Thursday
2232,75.65096305524308
2233,49.6629408908992
5265,157496.03587683265
2,4,10, 4, 0,12, 0.00,60.00,Thursday
2232,68.90101940777112
2233,45.74121479381031
5265,161824.1910705235
2,4,10, 4, 0,13, 0.00,60.00,Thursday
2232,65.18267934815312
2233,42.846402546260247
5265,164422.44411525236
2,4,10, 4, 0,14, 0.00,60.00,Thursday
2232,61.254198770071237
2233,39.30907417214374
5265,176311.94640655805
2,4,10, 4, 0,15, 0.00,60.00,Thursday
2232,55.48693577080362
2233,34.82627949321246
5265,165973.6492244501
2,4,10, 4, 0,16, 0.00,60.00,Thursday
2232,41.339431993158608
2233,25.542501868973088
5265,172266.27029975723
2,4,10, 4, 0,17, 0.00,60.00,Thursday
2232,21.152404936785648
2233,12.942082355800489
5265,160454.3946169028
2,4,10, 4, 0,18, 0.00,60.00,Thursday
2232,2.79401967868967
2233,1.6909817578713014
5265,87298.28440074984
2,4,10, 4, 0,19, 0.00,60.00,Thursday
2232,0.0
2233,0.0
5265,62352.45226679617
2,4,10, 4, 0,20, 0.00,60.00,Thursday
2232,0.0
2233,0.0
5265,44481.81365281241
2,4,10, 4, 0,21, 0.00,60.00,Thursday
2232,0.0
2233,0.0
5265,8250.419480336404
2,4,10, 4, 0,22, 0.00,60.00,Thursday
2232,0.0
2233,0.0
5265,8238.360843048538
2,4,10, 4, 0,23, 0.00,60.00,Thursday
2232,0.0
2233,0.0
5265,8235.496406499775
2,4,10, 4, 0,24, 0.00,60.00,Thursday
2232,0.0
2233,0.0
5265,8191.882756048563
2,5,10, 5, 0, 1, 0.00,60.00,Friday
2232,0.0
2233,0.0
5265,8095.206772814917
2,5,10, 5, 0, 2, 0.00,60.00,Friday
2232,0.0
2233,0.0
5265,7996.323249992221
2,5,10, 5, 0, 3, 0.00,60.00,Friday
2232,0.0
2233,0.0
5265,7931.840545747746
2,5,10, 5, 0, 4, 0.00,60.00,Friday
2232,0.0
2233,0.0
5265,7915.329472777436
2,5,10, 5, 0, 5, 0.00,60.00,Friday
2232,0.0
2233,0.0
5265,7907.040288792581
2,5,10, 5, 0, 6, 0.00,60.00,Friday
2232,13.448506257004113
2233,5.094755781517479
5265,7922.972001138162
2,5,10, 5, 0, 7, 0.00,60.00,Friday
2232,87.6650727417656
2233,31.46201933853556
5265,7981.209672108217
2,5,10, 5, 0, 8, 0.00,60.00,Friday
2232,77.62118551599615
2233,48.2169941574631
5265,28014.380316179497
2,5,10, 5, 0, 9, 0.00,60.00,Friday
2232,89.30782309537047
2233,55.97904275241325
5265,70319.01216192164
2,5,10, 5, 0,10, 0.00,60.00,Friday
2232,83.57779341005538
2233,53.57852055797131
5265,137594.93103974139
2,5,10, 5, 0,11, 0.00,60.00,Friday
2232,74.34437395529204
2233,48.80167910608231
5265,136158.9478709906
2,5,10, 5, 0,12, 0.00,60.00,Friday
2232,65.57766482720548
2233,43.74408541541137
5265,142519.65220258226
2,5,10, 5, 0,13, 0.00,60.00,Friday
2232,65.49943681761529
2233,43.01621034181454
5265,156296.46167873266
2,5,10, 5, 0,14, 0.00,60.00,Friday
2232,70.40169932578348
2233,44.765094853882668
5265,166606.7512950498
2,5,10, 5, 0,15, 0.00,60.00,Friday
2232,64.62640122312
2233,39.91980416698852
5265,145363.70663904245
2,5,10, 5, 0,16, 0.00,60.00,Friday
2232,43.47813304558315
2233,26.52205949970653
5265,126677.22159536423
2,5,10, 5, 0,17, 0.00,60.00,Friday
2232,20.912836829657868
2233,12.776225619399229
5265,117316.33943341281
2,5,10, 5, 0,18, 0.00,60.00,Friday
2232,2.299985645681904
2233,1.3959551703591185
5265,55630.456451637205
2,5,10, 5, 0,19, 0.00,60.00,Friday
2232,0.0
2233,0.0
5265,29414.28550229617
2,5,10, 5, 0,20, 0.00,60.00,Friday
2232,0.0
2233,0.0
5265,18544.724003834835
2,5,10, 5, 0,21, 0.00,60.00,Friday
2232,0.0
2233,0.0
5265,13414.022135361987
2,5,10, 5, 0,22, 0.00,60.00,Friday
2232,0.0
2233,0.0
5265,8304.737795426134
2,5,10, 5, 0,23, 0.00,60.00,Friday
2232,0.0
2233,0.0
5265,8277.06456427606
2,5,10, 5, 0,24, 0.00,60.00,Friday
2232,0.0
2233,0.0
5265,8254.17180377928
2,6,10, 6, 0, 1, 0.00,60.00,Saturday
2232,0.0
2233,0.0
5265,8229.446580469854
2,6,10, 6, 0, 2, 0.00,60.00,Saturday
2232,0.0
2233,0.0
5265,8214.045773782507
2,6,10, 6, 0, 3, 0.00,60.00,Saturday
2232,0.0
2233,0.0
5265,8188.439434952014
2,6,10, 6, 0, 4, 0.00,60.00,Saturday
2232,0.0
2233,0.0
5265,8167.347067399972
2,6,10, 6, 0, 5, 0.00,60.00,Saturday
2232,0.0
2233,0.0
5265,8150.21143241839
2,6,10, 6, 0, 6, 0.00,60.00,Saturday
2232,5.923781187523475
2233,2.64356302188899
5265,8125.042761609343
2,6,10, 6, 0, 7, 0.00,60.00,Saturday
2232,36.39624114966269
2233,16.470421422449506
5265,8090.025037488941
2,6,10, 6, 0, 8, 0.00,60.00,Saturday
2232,52.668261148832737
2233,32.84861420427823
5265,8086.386202760589
2,6,10, 6, 0, 9, 0.00,60.00,Saturday
2232,79.96319375589103
2233,50.28221280845829
5265,42058.63928884817
2,6,10, 6, 0,10, 0.00,60.00,Saturday
2232,84.61780005166726
2233,54.2509333857956
5265,62932.418488514806
2,6,10, 6, 0,11, 0.00,60.00,Saturday
2232,76.09421068772348
2233,49.973817229990519
5265,77404.97701548827
2,6,10, 6, 0,12, 0.00,60.00,Saturday
2232,70.17810964615986
2233,46.68541694936047
5265,71536.0372369414
2,6,10, 6, 0,13, 0.00,60.00,Saturday
2232,66.22541800887652
2233,43.56939097726933
5265,60062.070373200004
2,6,10, 6, 0,14, 0.00,60.00,Saturday
2232,61.53945253519197
2233,39.48972267387979
5265,52687.48998156621
2,6,10, 6, 0,15, 0.00,60.00,Saturday
2232,53.66719016780801
2233,33.693816756008867
5265,52984.187891632704
2,6,10, 6, 0,16, 0.00,60.00,Saturday
2232,39.212733888239849
2233,24.377981749643554
5265,47828.87974616556
2,6,10, 6, 0,17, 0.00,60.00,Saturday
2232,19.655801509952516
2233,12.090419135216316
5265,39151.455718142315
2,6,10, 6, 0,18, 0.00,60.00,Saturday
2232,2.0107048873547539
2233,1.2244527640623233
5265,35235.72845978663
2,6,10, 6, 0,19, 0.00,60.00,Saturday
2232,0.0
2233,0.0
5265,28441.657712200835
2,6,10, 6, 0,20, 0.00,60.00,Saturday
2232,0.0
2233,0.0
5265,11605.641480478407
2,6,10, 6, 0,21, 0.00,60.00,Saturday
2232,0.0
2233,0.0
5265,11478.671047145292
2,6,10, 6, 0,22, 0.00,60.00,Saturday
2232,0.0
2233,0.0
5265,8658.961778557297
2,6,10, 6, 0,23, 0.00,60.00,Saturday
2232,0.0
2233,0.0
5265,8334.406959672671
2,6,10, 6, 0,24, 0.00,60.00,Saturday
2232,0.0
2233,0.0
5265,8165.173672587091
2,7,10, 7, 0, 1, 0.00,60.00,Sunday
2232,0.0
2233,0.0
5265,8112.772636016136
2,7,10, 7, 0, 2, 0.00,60.00,Sunday
2232,0.0
2233,0.0
5265,8091.682416000374
2,7,10, 7, 0, 3, 0.00,60.00,Sunday
2232,0.0
2233,0.0
5265,8063.982757300689
2,7,10, 7, 0, 4, 0.00,60.00,Sunday
2232,0.0
2233,0.0
5265,8020.335031423824
2,7,10, 7, 0, 5, 0.00,60.00,Sunday
2232,0.0
2233,0.0
5265,7973.107022768568
2,7,10, 7, 0, 6, 0.00,60.00,Sunday
2232,6.276155109662509
2233,2.720126178497093
5265,7953.679509726105
2,7,10, 7, 0, 7, 0.00,60.00,Sunday
2232,39.575519242397728
2233,17.52981527860247
5265,7998.8555598905805
2,7,10, 7, 0, 8, 0.00,60.00,Sunday
2232,57.68725156330512
2233,36.04511804746446
5265,8087.067408108924
2,7,10, 7, 0, 9, 0.00,60.00,Sunday
2232,76.01719823784976
2233,47.800192372450819
5265,8195.043180531668
2,7,10, 7, 0,10, 0.00,60.00,Sunday
2232,77.66818876765025
2233,49.788213162720179
5265,8298.517559930124
2,7,10, 7, 0,11, 0.00,60.00,Sunday
2232,70.85462940317969
2233,46.44624294871259
5265,8361.44565579733
2,7,10, 7, 0,12, 0.00,60.00,Sunday
2232,64.02302743260195
2233,42.39340268527879
5265,8363.0916942529
2,7,10, 7, 0,13, 0.00,60.00,Sunday
2232,60.6667147359579
2233,39.82273897493675
5265,8304.506965285342
2,7,10, 7, 0,14, 0.00,60.00,Sunday
2232,56.3781295890264
2233,36.18650528485915
5265,8242.368082581888
2,7,10, 7, 0,15, 0.00,60.00,Sunday
2232,51.118386355662789
2233,32.12879062099376
5265,8227.590721096263
2,7,10, 7, 0,16, 0.00,60.00,Sunday
2232,37.814027398378197
2233,23.554438590990086
5265,8282.874299464771
2,7,10, 7, 0,17, 0.00,60.00,Sunday
2232,18.9680610668027
2233,11.707983238601323
5265,8346.15362769769
2,7,10, 7, 0,18, 0.00,60.00,Sunday
2232,1.9385418077058468
2233,1.1830211972641385
5265,8381.194342424771
2,7,10, 7, 0,19, 0.00,60.00,Sunday
2232,0.0
2233,0.0
5265,8346.99225221711
2,7,10, 7, 0,20, 0.00,60.00,Sunday
2232,0.0
2233,0.0
5265,8292.675426814672
2,7,10, 7, 0,21, 0.00,60.00,Sunday
2232,0.0
2233,0.0
5265,8241.201722862339
2,7,10, 7, 0,22, 0.00,60.00,Sunday
2232,0.0
2233,0.0
5265,8182.7270854134185
2,7,10, 7, 0,23, 0.00,60.00,Sunday
2232,0.0
2233,0.0
5265,8116.935100490799
2,7,10, 7, 0,24, 0.00,60.00,Sunday
2232,0.0
2233,0.0
5265,8073.460083694924
2,8,10, 8, 0, 1, 0.00,60.00,Monday
2232,0.0
2233,0.0
5265,7700.771571592064
2,8,10, 8, 0, 2, 0.00,60.00,Monday
2232,0.0
2233,0.0
5265,7745.2120279901255
2,8,10, 8, 0, 3, 0.00,60.00,Monday
2232,0.0
2233,0.0
5265,7692.45577994639
2,8,10, 8, 0, 4, 0.00,60.00,Monday
2232,0.0
2233,0.0
5265,7618.318361693061
2,8,10, 8, 0, 5, 0.00,60.00,Monday
2232,0.0
2233,0.0
5265,7550.809123135042
2,8,10, 8, 0, 6, 0.00,60.00,Monday
2232,6.894435611538586
2233,2.908826856082173
5265,7497.418424476993
2,8,10, 8, 0, 7, 0.00,60.00,Monday
2232,41.57808397921201
2233,17.865891333471166
5265,7473.771178989881
2,8,10, 8, 0, 8, 0.00,60.00,Monday
2232,53.84228109530472
2233,33.62751102905762
5265,29277.84489993137
2,8,10, 8, 0, 9, 0.00,60.00,Monday
2232,74.42977487880525
2233,46.81288509738632
5265,60368.1993224339
2,8,10, 8, 0,10, 0.00,60.00,Monday
2232,78.05881642784735
2233,50.04087602745568
5265,88311.49903127004
2,8,10, 8, 0,11, 0.00,60.00,Monday
2232,72.28078697943282
2233,47.40917196561431
5265,90520.99822065437
2,8,10, 8, 0,12, 0.00,60.00,Monday
2232,64.55790505857819
2233,42.75962628974441
5265,129792.12710571669
2,8,10, 8, 0,13, 0.00,60.00,Monday
2232,58.01882126268712
2233,38.08713788374275
5265,132443.53446067879
2,8,10, 8, 0,14, 0.00,60.00,Monday
2232,49.273900113043769
2233,31.75934887465189
5265,165532.98591288634
2,8,10, 8, 0,15, 0.00,60.00,Monday
2232,39.976574091688259
2233,25.315585526885088
5265,174822.41050804684
2,8,10, 8, 0,16, 0.00,60.00,Monday
2232,27.87621113015832
2233,17.521712512200577
5265,156185.77010739383
2,8,10, 8, 0,17, 0.00,60.00,Monday
2232,13.427774861651536
2233,8.50473351936299
5265,135130.91527428138
2,8,10, 8, 0,18, 0.00,60.00,Monday
2232,1.3865898756292475
2233,0.8730007165252216
5265,52373.42386057368
2,8,10, 8, 0,19, 0.00,60.00,Monday
2232,0.0
2233,0.0
5265,25742.620692718116
2,8,10, 8, 0,20, 0.00,60.00,Monday
2232,0.0
2233,0.0
5265,10856.941107659915
2,8,10, 8, 0,21, 0.00,60.00,Monday
2232,0.0
2233,0.0
5265,8428.072593938568
2,8,10, 8, 0,22, 0.00,60.00,Monday
2232,0.0
2233,0.0
5265,7979.515682895842
2,8,10, 8, 0,23, 0.00,60.00,Monday
2232,0.0
2233,0.0
5265,7943.407181090675
2,8,10, 8, 0,24, 0.00,60.00,Monday
2232,0.0
2233,0.0
5265,7915.20958800906
2,9,10, 9, 0, 1, 0.00,60.00,Tuesday
2232,0.0
2233,0.0
5265,7120.5915495956
2,9,10, 9, 0, 2, 0.00,60.00,Tuesday
2232,0.0
2233,0.0
5265,7209.060658572204
2,9,10, 9, 0, 3, 0.00,60.00,Tuesday
2232,0.0
2233,0.0
5265,7156.0524311713125
2,9,10, 9, 0, 4, 0.00,60.00,Tuesday
2232,0.0
2233,0.0
5265,7082.27549654003
2,9,10, 9, 0, 5, 0.00,60.00,Tuesday
2232,0.0
2233,0.0
5265,7004.165349128461
2,9,10, 9, 0, 6, 0.00,60.00,Tuesday
2232,13.30689896375207
2233,5.097699945143352
5265,7131.557591274628
2,9,10, 9, 0, 7, 0.00,60.00,Tuesday
2232,90.52253371922335
2233,32.82472403026783
5265,7521.2229145925885
2,9,10, 9, 0, 8, 0.00,60.00,Tuesday
2232,92.89759267662429
2233,56.356526747320497
5265,20824.87459793616
2,9,10, 9, 0, 9, 0.00,60.00,Tuesday
2232,108.8018310812684
2233,67.17234062041682
5265,73756.13269972452
2,9,10, 9, 0,10, 0.00,60.00,Tuesday
2232,101.43113229445726
2233,64.18096795476724
5265,105930.40578041096
2,9,10, 9, 0,11, 0.00,60.00,Tuesday
2232,82.86798372603822
2233,54.08871083889761
5265,114656.41314901097
2,9,10, 9, 0,12, 0.00,60.00,Tuesday
2232,70.35601790291085
2233,46.856215389081267
5265,152615.40390270897
2,9,10, 9, 0,13, 0.00,60.00,Tuesday
2232,69.56287077948237
2233,45.701535217565659
5265,144445.8509896216
2,9,10, 9, 0,14, 0.00,60.00,Tuesday
2232,70.01806978288592
2233,44.55531867930561
5265,168170.7957751843
2,9,10, 9, 0,15, 0.00,60.00,Tuesday
2232,58.89136689300019
2233,36.4182778841595
5265,147194.30467866807
2,9,10, 9, 0,16, 0.00,60.00,Tuesday
2232,39.55633742815709
2233,24.472300533651475
5265,149761.6536268493
2,9,10, 9, 0,17, 0.00,60.00,Tuesday
2232,16.405487217800969
2233,10.27424690365371
5265,125507.83279368289
2,9,10, 9, 0,18, 0.00,60.00,Tuesday
2232,1.5494147047641747
2233,0.9650435194985737
5265,111275.59807797359
2,9,10, 9, 0,19, 0.00,60.00,Tuesday
2232,0.0
2233,0.0
5265,66395.64673134801
2,9,10, 9, 0,20, 0.00,60.00,Tuesday
2232,0.0
2233,0.0
5265,32350.15317562237
2,9,10, 9, 0,21, 0.00,60.00,Tuesday
2232,0.0
2233,0.0
5265,8656.830151107755
2,9,10, 9, 0,22, 0.00,60.00,Tuesday
2232,0.0
2233,0.0
5265,8394.976009909158
2,9,10, 9, 0,23, 0.00,60.00,Tuesday
2232,0.0
2233,0.0
5265,8304.569351438606
2,9,10, 9, 0,24, 0.00,60.00,Tuesday
2232,0.0
2233,0.0
5265,8258.633443928307
2,10,10,10, 0, 1, 0.00,60.00,Wednesday
2232,0.0
2233,0.0
5265,8229.035587689104
2,10,10,10, 0, 2, 0.00,60.00,Wednesday
2232,0.0
2233,0.0
5265,8203.793163465934
2,10,10,10, 0, 3, 0.00,60.00,Wednesday
2232,0.0
2233,0.0
5265,8174.521310340281
2,10,10,10, 0, 4, 0.00,60.00,Wednesday
2232,0.0
2233,0.0
5265,8125.456259642415
2,10,10,10, 0, 5, 0.00,60.00,Wednesday
2232,0.0
2233,0.0
5265,8006.01816211523
2,10,10,10, 0, 6, 0.00,60.00,Wednesday
2232,7.101769763128279
2233,3.0050821914704328
5265,8027.041098091223
2,10,10,10, 0, 7, 0.00,60.00,Wednesday
2232,42.14763298474993
2233,18.128018879426607
5265,8195.323882729324
2,10,10,10, 0, 8, 0.00,60.00,Wednesday
2232,52.80830800188469
2233,32.92707724695641
5265,25401.093808891106
2,10,10,10, 0, 9, 0.00,60.00,Wednesday
2232,79.91352540704753
2233,50.23521703651746
5265,81059.40467789503
2,10,10,10, 0,10, 0.00,60.00,Wednesday
2232,84.07013654698237
2233,53.89309069590018
5265,113668.28831425817
2,10,10,10, 0,11, 0.00,60.00,Wednesday
2232,74.71899678333465
2233,49.09309479069005
5265,135718.55638765024
2,10,10,10, 0,12, 0.00,60.00,Wednesday
2232,60.583174127495649
2233,40.50944648661663
5265,171932.80738964678
2,10,10,10, 0,13, 0.00,60.00,Wednesday
2232,65.2310076621025
2233,42.82594272682511
5265,172176.8923566023
2,10,10,10, 0,14, 0.00,60.00,Wednesday
2232,68.63648876642567
2233,43.60663280032986
5265,172376.13604443617
2,10,10,10, 0,15, 0.00,60.00,Wednesday
2232,64.228948184546
2233,39.69954262515093
5265,178799.15024260965
2,10,10,10, 0,16, 0.00,60.00,Wednesday
2232,48.88963243111538
2233,29.761270760748336
5265,145204.01779587699
2,10,10,10, 0,17, 0.00,60.00,Wednesday
2232,25.23774326605459
2233,15.269095691605836
5265,83762.77910763545
2,10,10,10, 0,18, 0.00,60.00,Wednesday
2232,2.6640901326035335
2233,1.5900165598997023
5265,52929.779003129224
2,10,10,10, 0,19, 0.00,60.00,Wednesday
2232,0.0
2233,0.0
5265,23338.911972433027
2,10,10,10, 0,20, 0.00,60.00,Wednesday
2232,0.0
2233,0.0
5265,9365.682073321525
2,10,10,10, 0,21, 0.00,60.00,Wednesday
2232,0.0
2233,0.0
5265,8908.760575751769
2,10,10,10, 0,22, 0.00,60.00,Wednesday
2232,0.0
2233,0.0
5265,8464.123618059764
2,10,10,10, 0,23, 0.00,60.00,Wednesday
2232,0.0
2233,0.0
5265,8432.466512968485
2,10,10,10, 0,24, 0.00,60.00,Wednesday
2232,0.0
2233,0.0
5265,8395.131578654298
2,11,10,11, 0, 1, 0.00,60.00,Thursday
2232,0.0
2233,0.0
5265,8344.516751920219
2,11,10,11, 0, 2, 0.00,60.00,Thursday
2232,0.0
2233,0.0
5265,8283.973074893398
2,11,10,11, 0, 3, 0.00,60.00,Thursday
2232,0.0
2233,0.0
5265,8244.031929203144
2,11,10,11, 0, 4, 0.00,60.00,Thursday
2232,0.0
2233,0.0
5265,8217.444576781325
2,11,10,11, 0, 5, 0.00,60.00,Thursday
2232,0.0
2233,0.0
5265,8191.053849850247
2,11,10,11, 0, 6, 0.00,60.00,Thursday
2232,8.292796229177105
2233,3.3687344546245
5265,8212.638669889111
2,11,10,11, 0, 7, 0.00,60.00,Thursday
2232,50.195130025613277
2233,20.795964231594668
5265,8318.639162268935
2,11,10,11, 0, 8, 0.00,60.00,Thursday
2232,60.03776918001895
2233,37.50775928299743
5265,23844.941872967025
2,11,10,11, 0, 9, 0.00,60.00,Thursday
2232,76.77173627943508
2233,48.256982175109708
5265,114448.10334656855
2,11,10,11, 0,10, 0.00,60.00,Thursday
2232,78.11891391436974
2233,50.066259409814509
5265,148920.25597647075
2,11,10,11, 0,11, 0.00,60.00,Thursday
2232,72.50429141029166
2233,47.540296826665528
5265,167482.7937966199
2,11,10,11, 0,12, 0.00,60.00,Thursday
2232,68.41223642061627
2233,45.40819252762507
5265,169462.73784741466
2,11,10,11, 0,13, 0.00,60.00,Thursday
2232,65.94319394250218
2233,43.394363971444729
5265,172214.68894950144
2,11,10,11, 0,14, 0.00,60.00,Thursday
2232,62.690631217753288
2233,40.183772983839009
5265,184391.56150986497
2,11,10,11, 0,15, 0.00,60.00,Thursday
2232,54.79103368805273
2233,34.38937932098974
5265,180401.53275720255
2,11,10,11, 0,16, 0.00,60.00,Thursday
2232,38.78241156526432
2233,24.05691562409208
5265,182044.1450029692
2,11,10,11, 0,17, 0.00,60.00,Thursday
2232,18.500429469393646
2233,11.384920819618829
5265,168454.46572894808
2,11,10,11, 0,18, 0.00,60.00,Thursday
2232,1.8843619502214074
2233,1.148763136571592
5265,88505.85203977418
2,11,10,11, 0,19, 0.00,60.00,Thursday
2232,0.0
2233,0.0
5265,63660.93665239619
2,11,10,11, 0,20, 0.00,60.00,Thursday
2232,0.0
2233,0.0
5265,45720.00231697888
2,11,10,11, 0,21, 0.00,60.00,Thursday
2232,0.0
2233,0.0
5265,8469.398074218532
2,11,10,11, 0,22, 0.00,60.00,Thursday
2232,0.0
2233,0.0
5265,8423.894726082908
2,11,10,11, 0,23, 0.00,60.00,Thursday
2232,0.0
2233,0.0
5265,8382.4263712918
2,11,10,11, 0,24, 0.00,60.00,Thursday
2232,0.0
2233,0.0
5265,8335.936121752626
2,12,10,12, 0, 1, 0.00,60.00,Friday
2232,0.0
2233,0.0
5265,8264.511717651383
2,12,10,12, 0, 2, 0.00,60.00,Friday
2232,0.0
2233,0.0
5265,8186.135222060075
2,12,10,12, 0, 3, 0.00,60.00,Friday
2232,0.0
2233,0.0
5265,8152.346726304557
2,12,10,12, 0, 4, 0.00,60.00,Friday
2232,0.0
2233,0.0
5265,8188.770379961229
2,12,10,12, 0, 5, 0.00,60.00,Friday
2232,0.0
2233,0.0
5265,8226.176591605361
2,12,10,12, 0, 6, 0.00,60.00,Friday
2232,7.771606898715615
2233,3.2067191646903159
5265,8260.891523403945
2,12,10,12, 0, 7, 0.00,60.00,Friday
2232,48.58144450729813
2233,20.344269266789195
5265,8331.120137556709
2,12,10,12, 0, 8, 0.00,60.00,Friday
2232,61.36656383869209
2233,38.37417004697599
5265,29224.685340325046
2,12,10,12, 0, 9, 0.00,60.00,Friday
2232,79.14307307191962
2233,49.746191341335279
5265,92036.87287683533
2,12,10,12, 0,10, 0.00,60.00,Friday
2232,80.18919126621342
2233,51.38613202850889
5265,150659.9590590146
2,12,10,12, 0,11, 0.00,60.00,Friday
2232,73.21155640384619
2233,48.021942542581808
5265,149064.83924245466
2,12,10,12, 0,12, 0.00,60.00,Friday
2232,67.23717917246926
2233,44.596879560000228
5265,151911.01684419963
2,12,10,12, 0,13, 0.00,60.00,Friday
2232,63.52992835362246
2233,41.74012665178151
5265,161246.28561322523
2,12,10,12, 0,14, 0.00,60.00,Friday
2232,59.78974971144274
2233,38.36996483967171
5265,168624.99140850086
2,12,10,12, 0,15, 0.00,60.00,Friday
2232,52.029673176790478
2233,32.67590794459643
5265,148984.69100767835
2,12,10,12, 0,16, 0.00,60.00,Friday
2232,37.53379199113299
2233,23.360626295846079
5265,131967.6763847257
2,12,10,12, 0,17, 0.00,60.00,Friday
2232,17.539232794831688
2233,10.856525247192283
5265,122254.06469989226
2,12,10,12, 0,18, 0.00,60.00,Friday
2232,1.737412285199927
2233,1.0638126282386369
5265,56022.65632710729
2,12,10,12, 0,19, 0.00,60.00,Friday
2232,0.0
2233,0.0
5265,29689.97272809756
2,12,10,12, 0,20, 0.00,60.00,Friday
2232,0.0
2233,0.0
5265,18675.157824689173
2,12,10,12, 0,21, 0.00,60.00,Friday
2232,0.0
2233,0.0
5265,13467.812602408218
2,12,10,12, 0,22, 0.00,60.00,Friday
2232,0.0
2233,0.0
5265,8283.892801662207
2,12,10,12, 0,23, 0.00,60.00,Friday
2232,0.0
2233,0.0
5265,8186.292397688251
2,12,10,12, 0,24, 0.00,60.00,Friday
2232,0.0
2233,0.0
5265,8118.627805074569
2,13,10,13, 0, 1, 0.00,60.00,Saturday
2232,0.0
2233,0.0
5265,8108.414351134211
2,13,10,13, 0, 2, 0.00,60.00,Saturday
2232,0.0
2233,0.0
5265,8111.490549122773
2,13,10,13, 0, 3, 0.00,60.00,Saturday
2232,0.0
2233,0.0
5265,8114.530081733615
2,13,10,13, 0, 4, 0.00,60.00,Saturday
2232,0.0
2233,0.0
5265,8108.593200076921
2,13,10,13, 0, 5, 0.00,60.00,Saturday
2232,0.0
2233,0.0
5265,8102.801054807721
2,13,10,13, 0, 6, 0.00,60.00,Saturday
2232,8.308946060810185
2233,3.365197839121496
5265,8132.4947235813825
2,13,10,13, 0, 7, 0.00,60.00,Saturday
2232,50.195595178927309
2233,20.748557673249068
5265,8241.252406074957
2,13,10,13, 0, 8, 0.00,60.00,Saturday
2232,60.09268860442095
2233,37.55049408026659
5265,8386.178892149743
2,13,10,13, 0, 9, 0.00,60.00,Saturday
2232,78.84469730247447
2233,49.55782168009625
5265,58373.32596806306
2,13,10,13, 0,10, 0.00,60.00,Saturday
2232,80.78370615824805
2233,51.7661850386429
5265,82976.19788644194
2,13,10,13, 0,11, 0.00,60.00,Saturday
2232,73.74707715955215
2233,48.383635007001569
5265,93944.89571905507
2,13,10,13, 0,12, 0.00,60.00,Saturday
2232,68.01341430227099
2233,45.15910142900683
5265,84461.18877005419
2,13,10,13, 0,13, 0.00,60.00,Saturday
2232,64.94834387550259
2233,42.71768801668483
5265,64054.98782280532
2,13,10,13, 0,14, 0.00,60.00,Saturday
2232,61.9716295572864
2233,39.77852425988178
5265,57461.95577778094
2,13,10,13, 0,15, 0.00,60.00,Saturday
2232,53.798781002761817
2233,33.76926383157509
5265,57597.390666200845
2,13,10,13, 0,16, 0.00,60.00,Saturday
2232,38.59739088744255
2233,23.91378374740285
5265,51791.22756704006
2,13,10,13, 0,17, 0.00,60.00,Saturday
2232,17.97494830889455
2233,11.075862319690517
5265,42198.67781425165
2,13,10,13, 0,18, 0.00,60.00,Saturday
2232,1.7827841689155169
2233,1.0871964533017609
5265,36060.23411647522
2,13,10,13, 0,19, 0.00,60.00,Saturday
2232,0.0
2233,0.0
5265,28645.982240586793
2,13,10,13, 0,20, 0.00,60.00,Saturday
2232,0.0
2233,0.0
5265,12673.554153552186
2,13,10,13, 0,21, 0.00,60.00,Saturday
2232,0.0
2233,0.0
5265,12506.713688496066
2,13,10,13, 0,22, 0.00,60.00,Saturday
2232,0.0
2233,0.0
5265,8685.216597772394
2,13,10,13, 0,23, 0.00,60.00,Saturday
2232,0.0
2233,0.0
5265,8440.739820521716
2,13,10,13, 0,24, 0.00,60.00,Saturday
2232,0.0
2233,0.0
5265,8353.710354973944