Program Version,EnergyPlus, Version 8.7.0-78a111df4a, YMD=2019.11.22 13:25
1,5,Environment Title[],Latitude[deg],Longitude[deg],Time Zone[],Elevation[m]
2,6,Day of Simulation[],Month[],Day of Month[],DST Indicator[1=yes 0=no],Hour[],StartMinute[],EndMinute[],DayType
3,3,Cumulative Day of Simulation[],Month[],Day of Month[],DST Indicator[1=yes 0=no],DayType  ! When Daily Report Variables Requested
4,2,Cumulative Days of Simulation[],Month[]  ! When Monthly Report Variables Requested
5,1,Cumulative Days of Simulation[] ! When Run Period Report Variables Requested
2232,1,AF305DAYLIGHINGCONTROL,Daylighting Reference Point 1 Illuminance [lux] !Hourly
2233,1,AF305DAYLIGHINGCONTROL,Daylighting Reference Point 2 Illuminance [lux] !Hourly
5265,1,Whole Building,Facility Total Electric Demand Power [W] !Hourly
End of Data Dictionary
1,RUNPERIOD,  10.30, 123.97,   8.00,  24.00
2,1,10, 1, 0, 1, 0.00,60.00,Monday
2232,0.0
2233,0.0
5265,7963.017272001282
2,1,10, 1, 0, 2, 0.00,60.00,Monday
2232,0.0
2233,0.0
5265,7877.944968411619
2,1,10, 1, 0, 3, 0.00,60.00,Monday
2232,0.0
2233,0.0
5265,7740.801417253136
2,1,10, 1, 0, 4, 0.00,60.00,Monday
2232,0.0
2233,0.0
5265,7672.267153196008
2,1,10, 1, 0, 5, 0.00,60.00,Monday
2232,0.0
2233,0.0
5265,7608.173297778648
2,1,10, 1, 0, 6, 0.00,60.00,Monday
2232,89.06159473088433
2233,31.797265910679586
5265,7667.6595646182
2,1,10, 1, 0, 7, 0.00,60.00,Monday
2232,606.7679236520685
2233,191.08147276568546
5265,7805.949225552012
2,1,10, 1, 0, 8, 0.00,60.00,Monday
2232,488.1134424244699
2233,291.8707334405562
5265,29706.342257138924
2,1,10, 1, 0, 9, 0.00,60.00,Monday
2232,547.7004645669268
2233,336.7340476625417
5265,61874.24681707583
2,1,10, 1, 0,10, 0.00,60.00,Monday
2232,507.50183344711896
2233,320.99661925116177
5265,96309.80478936382
2,1,10, 1, 0,11, 0.00,60.00,Monday
2232,413.0086091907872
2233,269.7192702815034
5265,98030.95370563143
2,1,10, 1, 0,12, 0.00,60.00,Monday
2232,323.7547153435271
2233,216.1910951022719
5265,141694.39927415169
2,1,10, 1, 0,13, 0.00,60.00,Monday
2232,319.44011211472079
2233,210.4852255973337
5265,145111.92594510859
2,1,10, 1, 0,14, 0.00,60.00,Monday
2232,308.07836745797337
2233,197.7953040431885
5265,170382.44821892796
2,1,10, 1, 0,15, 0.00,60.00,Monday
2232,242.31419493244628
2233,152.4018962515099
5265,177616.67556937345
2,1,10, 1, 0,16, 0.00,60.00,Monday
2232,158.7859555316427
2233,99.38131505327226
5265,158774.61786176565
2,1,10, 1, 0,17, 0.00,60.00,Monday
2232,64.6509118970141
2233,41.02313214639442
5265,137267.5701978904
2,1,10, 1, 0,18, 0.00,60.00,Monday
2232,7.336416276498217
2233,4.650044507791258
5265,52789.03110526993
2,1,10, 1, 0,19, 0.00,60.00,Monday
2232,0.0
2233,0.0
5265,26000.55588710556
2,1,10, 1, 0,20, 0.00,60.00,Monday
2232,0.0
2233,0.0
5265,10994.510620013816
2,1,10, 1, 0,21, 0.00,60.00,Monday
2232,0.0
2233,0.0
5265,8577.829551667242
2,1,10, 1, 0,22, 0.00,60.00,Monday
2232,0.0
2233,0.0
5265,8150.59601330973
2,1,10, 1, 0,23, 0.00,60.00,Monday
2232,0.0
2233,0.0
5265,8136.9201480324655
2,1,10, 1, 0,24, 0.00,60.00,Monday
2232,0.0
2233,0.0
5265,8119.429471205141
2,2,10, 2, 0, 1, 0.00,60.00,Tuesday
2232,0.0
2233,0.0
5265,7871.989536985077
2,2,10, 2, 0, 2, 0.00,60.00,Tuesday
2232,0.0
2233,0.0
5265,7779.889530858968
2,2,10, 2, 0, 3, 0.00,60.00,Tuesday
2232,0.0
2233,0.0
5265,7669.911163300875
2,2,10, 2, 0, 4, 0.00,60.00,Tuesday
2232,0.0
2233,0.0
5265,7553.677197479301
2,2,10, 2, 0, 5, 0.00,60.00,Tuesday
2232,0.0
2233,0.0
5265,7426.659325282028
2,2,10, 2, 0, 6, 0.00,60.00,Tuesday
2232,89.54031562629125
2233,32.41876603714666
5265,7538.586049274793
2,2,10, 2, 0, 7, 0.00,60.00,Tuesday
2232,616.2167150050909
2233,196.2159533891311
5265,7974.399664843698
2,2,10, 2, 0, 8, 0.00,60.00,Tuesday
2232,515.9995232472146
2233,304.2834006077909
5265,21087.60269106644
2,2,10, 2, 0, 9, 0.00,60.00,Tuesday
2232,565.7557233218026
2233,346.61452049765316
5265,82563.76969170138
2,2,10, 2, 0,10, 0.00,60.00,Tuesday
2232,517.6385010719931
2233,326.9530196736025
5265,115319.09781222265
2,2,10, 2, 0,11, 0.00,60.00,Tuesday
2232,401.664549455262
2233,262.42707430795368
5265,121025.86507963711
2,2,10, 2, 0,12, 0.00,60.00,Tuesday
2232,333.62696331052697
2233,222.3803459007006
5265,151861.17695253765
2,2,10, 2, 0,13, 0.00,60.00,Tuesday
2232,321.5462820010368
2233,211.35954582699299
5265,136669.34117165485
2,2,10, 2, 0,14, 0.00,60.00,Tuesday
2232,272.89137914154716
2233,175.35326960334727
5265,154253.42383410608
2,2,10, 2, 0,15, 0.00,60.00,Tuesday
2232,226.92665469733775
2233,142.99578356883806
5265,130426.18854546525
2,2,10, 2, 0,16, 0.00,60.00,Tuesday
2232,159.28698336472653
2233,99.65459506758869
5265,135213.77790070963
2,2,10, 2, 0,17, 0.00,60.00,Tuesday
2232,80.81809467270407
2233,51.00524424203743
5265,111029.81926572095
2,2,10, 2, 0,18, 0.00,60.00,Tuesday
2232,9.1199596663671
2233,5.720303811140071
5265,109442.80950072548
2,2,10, 2, 0,19, 0.00,60.00,Tuesday
2232,0.0
2233,0.0
5265,64257.629846997384
2,2,10, 2, 0,20, 0.00,60.00,Tuesday
2232,0.0
2233,0.0
5265,31289.917712876064
2,2,10, 2, 0,21, 0.00,60.00,Tuesday
2232,0.0
2233,0.0
5265,8631.990493445248
2,2,10, 2, 0,22, 0.00,60.00,Tuesday
2232,0.0
2233,0.0
5265,8386.292650869234
2,2,10, 2, 0,23, 0.00,60.00,Tuesday
2232,0.0
2233,0.0
5265,8335.223156199596
2,2,10, 2, 0,24, 0.00,60.00,Tuesday
2232,0.0
2233,0.0
5265,8295.605639180341
2,3,10, 3, 0, 1, 0.00,60.00,Wednesday
2232,0.0
2233,0.0
5265,8219.10815841262
2,3,10, 3, 0, 2, 0.00,60.00,Wednesday
2232,0.0
2233,0.0
5265,8122.282520187309
2,3,10, 3, 0, 3, 0.00,60.00,Wednesday
2232,0.0
2233,0.0
5265,7992.530025255056
2,3,10, 3, 0, 4, 0.00,60.00,Wednesday
2232,0.0
2233,0.0
5265,7930.962564568536
2,3,10, 3, 0, 5, 0.00,60.00,Wednesday
2232,0.0
2233,0.0
5265,7859.024199148723
2,3,10, 3, 0, 6, 0.00,60.00,Wednesday
2232,34.56073907784751
2233,14.650965812297829
5265,7900.038331615531
2,3,10, 3, 0, 7, 0.00,60.00,Wednesday
2232,214.26674409412773
2233,92.33419446502207
5265,8081.749050242851
2,3,10, 3, 0, 8, 0.00,60.00,Wednesday
2232,295.49272677827147
2233,184.6232831989595
5265,25186.879516356843
2,3,10, 3, 0, 9, 0.00,60.00,Wednesday
2232,415.31546432701478
2233,261.1457456576658
5265,75803.70104676538
2,3,10, 3, 0,10, 0.00,60.00,Wednesday
2232,424.0600530907127
2233,271.81557916127528
5265,112799.53827575244
2,3,10, 3, 0,11, 0.00,60.00,Wednesday
2232,379.961244879934
2233,249.41513734043134
5265,133466.99861746157
2,3,10, 3, 0,12, 0.00,60.00,Wednesday
2232,333.5189503813123
2233,221.06724191617165
5265,164885.22982251386
2,3,10, 3, 0,13, 0.00,60.00,Wednesday
2232,291.31513042327807
2233,191.2630388203024
5265,155895.84815739288
2,3,10, 3, 0,14, 0.00,60.00,Wednesday
2232,253.97226431329015
2233,163.6124720559916
5265,152953.2584435114
2,3,10, 3, 0,15, 0.00,60.00,Wednesday
2232,234.5288376029225
2233,147.65867878687579
5265,158430.76462878925
2,3,10, 3, 0,16, 0.00,60.00,Wednesday
2232,187.90032556218879
2233,117.19297884711937
5265,123689.40236287425
2,3,10, 3, 0,17, 0.00,60.00,Wednesday
2232,98.74800761916886
2233,61.01804412827232
5265,68641.87615896687
2,3,10, 3, 0,18, 0.00,60.00,Wednesday
2232,11.844702218661303
2233,7.215770971869554
5265,52189.27514080168
2,3,10, 3, 0,19, 0.00,60.00,Wednesday
2232,0.0
2233,0.0
5265,22665.831820035444
2,3,10, 3, 0,20, 0.00,60.00,Wednesday
2232,0.0
2233,0.0
5265,9043.168982406913
2,3,10, 3, 0,21, 0.00,60.00,Wednesday
2232,0.0
2233,0.0
5265,8520.475370207962
2,3,10, 3, 0,22, 0.00,60.00,Wednesday
2232,0.0
2233,0.0
5265,8100.672502758949
2,3,10, 3, 0,23, 0.00,60.00,Wednesday
2232,0.0
2233,0.0
5265,8126.978242122001
2,3,10, 3, 0,24, 0.00,60.00,Wednesday
2232,0.0
2233,0.0
5265,8124.365848511068
2,4,10, 4, 0, 1, 0.00,60.00,Thursday
2232,0.0
2233,0.0
5265,8060.245677732455
2,4,10, 4, 0, 2, 0.00,60.00,Thursday
2232,0.0
2233,0.0
5265,7985.0548774862555
2,4,10, 4, 0, 3, 0.00,60.00,Thursday
2232,0.0
2233,0.0
5265,7924.356628214905
2,4,10, 4, 0, 4, 0.00,60.00,Thursday
2232,0.0
2233,0.0
5265,7909.207559840378
2,4,10, 4, 0, 5, 0.00,60.00,Thursday
2232,0.0
2233,0.0
5265,7907.254894739054
2,4,10, 4, 0, 6, 0.00,60.00,Thursday
2232,47.07860771427135
2233,18.261769769758048
5265,7929.302935569056
2,4,10, 4, 0, 7, 0.00,60.00,Thursday
2232,297.6777157341044
2233,117.33281053256478
5265,8000.980985159746
2,4,10, 4, 0, 8, 0.00,60.00,Thursday
2232,354.68157652518337
2233,221.22266780211178
5265,22700.72155362889
2,4,10, 4, 0, 9, 0.00,60.00,Thursday
2232,429.9346163501493
2233,270.2790430123592
5265,96413.77052733943
2,4,10, 4, 0,10, 0.00,60.00,Thursday
2232,423.6343320898315
2233,271.62503788302146
5265,132216.6008294253
2,4,10, 4, 0,11, 0.00,60.00,Thursday
2232,378.25481527611307
2233,248.31470445443953
5265,157496.03587683265
2,4,10, 4, 0,12, 0.00,60.00,Thursday
2232,344.5050970387635
2233,228.70607396900054
5265,161824.1910705235
2,4,10, 4, 0,13, 0.00,60.00,Thursday
2232,325.91339674067646
2233,214.23201273125384
5265,164422.44411525236
2,4,10, 4, 0,14, 0.00,60.00,Thursday
2232,306.27099385026858
2233,196.5453708606752
5265,176311.94640655805
2,4,10, 4, 0,15, 0.00,60.00,Thursday
2232,277.43467885393519
2233,174.13139746602313
5265,165973.6492244501
2,4,10, 4, 0,16, 0.00,60.00,Thursday
2232,206.69715996572919
2233,127.71250934483554
5265,172266.27029975723
2,4,10, 4, 0,17, 0.00,60.00,Thursday
2232,105.76202468389464
2233,64.71041177898617
5265,160454.3946169028
2,4,10, 4, 0,18, 0.00,60.00,Thursday
2232,13.970098393443744
2233,8.454908789354134
5265,87298.28440074984
2,4,10, 4, 0,19, 0.00,60.00,Thursday
2232,0.0
2233,0.0
5265,62352.45226679617
2,4,10, 4, 0,20, 0.00,60.00,Thursday
2232,0.0
2233,0.0
5265,44481.81365281241
2,4,10, 4, 0,21, 0.00,60.00,Thursday
2232,0.0
2233,0.0
5265,8250.419480336404
2,4,10, 4, 0,22, 0.00,60.00,Thursday
2232,0.0
2233,0.0
5265,8238.360843048538
2,4,10, 4, 0,23, 0.00,60.00,Thursday
2232,0.0
2233,0.0
5265,8235.496406499775
2,4,10, 4, 0,24, 0.00,60.00,Thursday
2232,0.0
2233,0.0
5265,8191.882756048563
2,5,10, 5, 0, 1, 0.00,60.00,Friday
2232,0.0
2233,0.0
5265,8095.206772814917
2,5,10, 5, 0, 2, 0.00,60.00,Friday
2232,0.0
2233,0.0
5265,7996.323249992221
2,5,10, 5, 0, 3, 0.00,60.00,Friday
2232,0.0
2233,0.0
5265,7931.840545747746
2,5,10, 5, 0, 4, 0.00,60.00,Friday
2232,0.0
2233,0.0
5265,7915.329472777436
2,5,10, 5, 0, 5, 0.00,60.00,Friday
2232,0.0
2233,0.0
5265,7907.040288792581
2,5,10, 5, 0, 6, 0.00,60.00,Friday
2232,67.2425312849728
2233,25.473778907580994
5265,7922.972001138162
2,5,10, 5, 0, 7, 0.00,60.00,Friday
2232,438.3253637084742
2233,157.31009669265169
5265,7981.209672108217
2,5,10, 5, 0, 8, 0.00,60.00,Friday
2232,388.1059275798818
2233,241.08497078727053
5265,28014.380316179497
2,5,10, 5, 0, 9, 0.00,60.00,Friday
2232,446.5391154767301
2233,279.89521376200448
5265,70319.01216192164
2,5,10, 5, 0,10, 0.00,60.00,Friday
2232,417.88896705016085
2233,267.89260278979426
5265,137594.93103974139
2,5,10, 5, 0,11, 0.00,60.00,Friday
2232,371.7218697763597
2233,244.00839553035613
5265,136158.9478709906
2,5,10, 5, 0,12, 0.00,60.00,Friday
2232,327.8883241359386
2233,218.72042707700727
5265,142519.65220258226
2,5,10, 5, 0,13, 0.00,60.00,Friday
2232,327.49718408798216
2233,215.08105170902196
5265,156296.46167873266
2,5,10, 5, 0,14, 0.00,60.00,Friday
2232,352.00849662881066
2233,223.82547426935958
5265,166606.7512950498
2,5,10, 5, 0,15, 0.00,60.00,Friday
2232,323.1320061154982
2233,199.59902083489502
5265,145363.70663904245
2,5,10, 5, 0,16, 0.00,60.00,Friday
2232,217.39066522784638
2233,132.6102974985009
5265,126677.22159536423
2,5,10, 5, 0,17, 0.00,60.00,Friday
2232,104.56418414825596
2233,63.88112809698006
5265,117316.33943341281
2,5,10, 5, 0,18, 0.00,60.00,Friday
2232,11.499928228405765
2233,6.979775851793671
5265,55630.456451637205
2,5,10, 5, 0,19, 0.00,60.00,Friday
2232,0.0
2233,0.0
5265,29414.28550229617
2,5,10, 5, 0,20, 0.00,60.00,Friday
2232,0.0
2233,0.0
5265,18544.724003834835
2,5,10, 5, 0,21, 0.00,60.00,Friday
2232,0.0
2233,0.0
5265,13414.022135361987
2,5,10, 5, 0,22, 0.00,60.00,Friday
2232,0.0
2233,0.0
5265,8304.737795426134
2,5,10, 5, 0,23, 0.00,60.00,Friday
2232,0.0
2233,0.0
5265,8277.06456427606
2,5,10, 5, 0,24, 0.00,60.00,Friday
2232,0.0
2233,0.0
5265,8254.17180377928
2,6,10, 6, 0, 1, 0.00,60.00,Saturday
2232,0.0
2233,0.0
5265,8229.446580469854
2,6,10, 6, 0, 2, 0.00,60.00,Saturday
2232,0.0
2233,0.0
5265,8214.045773782507
2,6,10, 6, 0, 3, 0.00,60.00,Saturday
2232,0.0
2233,0.0
5265,8188.439434952014
2,6,10, 6, 0, 4, 0.00,60.00,Saturday
2232,0.0
2233,0.0
5265,8167.347067399972
2,6,10, 6, 0, 5, 0.00,60.00,Saturday
2232,0.0
2233,0.0
5265,8150.21143241839
2,6,10, 6, 0, 6, 0.00,60.00,Saturday
2232,29.618905937597789
2233,13.217815109441844
5265,8125.042761609343
2,6,10, 6, 0, 7, 0.00,60.00,Saturday
2232,181.9812057481963
2233,82.35210711223111
5265,8090.025037488941
2,6,10, 6, 0, 8, 0.00,60.00,Saturday
2232,263.34130574409115
2233,164.24307102135428
5265,8086.386202760589
2,6,10, 6, 0, 9, 0.00,60.00,Saturday
2232,399.81596877934438
2233,251.41106404223425
5265,42058.63928884817
2,6,10, 6, 0,10, 0.00,60.00,Saturday
2232,423.08900025821876
2233,271.2546669289148
5265,62932.418488514806
2,6,10, 6, 0,11, 0.00,60.00,Saturday
2232,380.4710534385138
2233,249.86908614989535
5265,77404.97701548827
2,6,10, 6, 0,12, 0.00,60.00,Saturday
2232,350.8905482307053
2233,233.42708474675025
5265,71536.0372369414
2,6,10, 6, 0,13, 0.00,60.00,Saturday
2232,331.12709004429197
2233,217.84695488629846
5265,60062.070373200004
2,6,10, 6, 0,14, 0.00,60.00,Saturday
2232,307.6972626758717
2233,197.44861336935524
5265,52687.48998156621
2,6,10, 6, 0,15, 0.00,60.00,Saturday
2232,268.33595083896
2233,168.46908378000638
5265,52984.187891632704
2,6,10, 6, 0,16, 0.00,60.00,Saturday
2232,196.0636694411396
2233,121.88990874818949
5265,47828.87974616556
2,6,10, 6, 0,17, 0.00,60.00,Saturday
2232,98.27900754973178
2233,60.45209567606661
5265,39151.455718142315
2,6,10, 6, 0,18, 0.00,60.00,Saturday
2232,10.053524436770515
2233,6.122263820309968
5265,35235.72845978663
2,6,10, 6, 0,19, 0.00,60.00,Saturday
2232,0.0
2233,0.0
5265,28441.657712200835
2,6,10, 6, 0,20, 0.00,60.00,Saturday
2232,0.0
2233,0.0
5265,11605.641480478407
2,6,10, 6, 0,21, 0.00,60.00,Saturday
2232,0.0
2233,0.0
5265,11478.671047145292
2,6,10, 6, 0,22, 0.00,60.00,Saturday
2232,0.0
2233,0.0
5265,8658.961778557297
2,6,10, 6, 0,23, 0.00,60.00,Saturday
2232,0.0
2233,0.0
5265,8334.406959672671
2,6,10, 6, 0,24, 0.00,60.00,Saturday
2232,0.0
2233,0.0
5265,8165.173672587091
2,7,10, 7, 0, 1, 0.00,60.00,Sunday
2232,0.0
2233,0.0
5265,8112.772636016136
2,7,10, 7, 0, 2, 0.00,60.00,Sunday
2232,0.0
2233,0.0
5265,8091.682416000374
2,7,10, 7, 0, 3, 0.00,60.00,Sunday
2232,0.0
2233,0.0
5265,8063.982757300689
2,7,10, 7, 0, 4, 0.00,60.00,Sunday
2232,0.0
2233,0.0
5265,8020.335031423824
2,7,10, 7, 0, 5, 0.00,60.00,Sunday
2232,0.0
2233,0.0
5265,7973.107022768568
2,7,10, 7, 0, 6, 0.00,60.00,Sunday
2232,31.38077554829096
2233,13.600630892482306
5265,7953.679509726105
2,7,10, 7, 0, 7, 0.00,60.00,Sunday
2232,197.87759621185766
2233,87.64907639299531
5265,7998.8555598905805
2,7,10, 7, 0, 8, 0.00,60.00,Sunday
2232,288.43625781644786
2233,180.22559023728364
5265,8087.067408108924
2,7,10, 7, 0, 9, 0.00,60.00,Sunday
2232,380.0859911891432
2233,239.00096186219938
5265,8195.043180531668
2,7,10, 7, 0,10, 0.00,60.00,Sunday
2232,388.34094383814365
2233,248.94106581354314
5265,8298.517559930124
2,7,10, 7, 0,11, 0.00,60.00,Sunday
2232,354.273147015803
2233,232.23121474351039
5265,8361.44565579733
2,7,10, 7, 0,12, 0.00,60.00,Sunday
2232,320.11513716292446
2233,211.96701342634678
5265,8363.0916942529
2,7,10, 7, 0,13, 0.00,60.00,Sunday
2232,303.3335736797069
2233,199.11369487463979
5265,8304.506965285342
2,7,10, 7, 0,14, 0.00,60.00,Sunday
2232,281.8906479450516
2233,180.93252642425569
5265,8242.368082581888
2,7,10, 7, 0,15, 0.00,60.00,Sunday
2232,255.59193177823807
2233,160.6439531049327
5265,8227.590721096263
2,7,10, 7, 0,16, 0.00,60.00,Sunday
2232,189.0701369918338
2233,117.77219295492319
5265,8282.874299464771
2,7,10, 7, 0,17, 0.00,60.00,Sunday
2232,94.84030533398406
2233,58.53991619299222
5265,8346.15362769769
2,7,10, 7, 0,18, 0.00,60.00,Sunday
2232,9.692709038526118
2233,5.915105986319124
5265,8381.194342424771
2,7,10, 7, 0,19, 0.00,60.00,Sunday
2232,0.0
2233,0.0
5265,8346.99225221711
2,7,10, 7, 0,20, 0.00,60.00,Sunday
2232,0.0
2233,0.0
5265,8292.675426814672
2,7,10, 7, 0,21, 0.00,60.00,Sunday
2232,0.0
2233,0.0
5265,8241.201722862339
2,7,10, 7, 0,22, 0.00,60.00,Sunday
2232,0.0
2233,0.0
5265,8182.7270854134185
2,7,10, 7, 0,23, 0.00,60.00,Sunday
2232,0.0
2233,0.0
5265,8116.935100490799
2,7,10, 7, 0,24, 0.00,60.00,Sunday
2232,0.0
2233,0.0
5265,8073.460083694924
2,8,10, 8, 0, 1, 0.00,60.00,Monday
2232,0.0
2233,0.0
5265,7700.771571592064
2,8,10, 8, 0, 2, 0.00,60.00,Monday
2232,0.0
2233,0.0
5265,7745.2120279901255
2,8,10, 8, 0, 3, 0.00,60.00,Monday
2232,0.0
2233,0.0
5265,7692.45577994639
2,8,10, 8, 0, 4, 0.00,60.00,Monday
2232,0.0
2233,0.0
5265,7618.318361693061
2,8,10, 8, 0, 5, 0.00,60.00,Monday
2232,0.0
2233,0.0
5265,7550.809123135042
2,8,10, 8, 0, 6, 0.00,60.00,Monday
2232,34.47217805766844
2233,14.544134280407479
5265,7497.418424476993
2,8,10, 8, 0, 7, 0.00,60.00,Monday
2232,207.89041989591667
2233,89.32945666733866
5265,7473.771178989881
2,8,10, 8, 0, 8, 0.00,60.00,Monday
2232,269.21140547645026
2233,168.13755514525114
5265,29277.84489993137
2,8,10, 8, 0, 9, 0.00,60.00,Monday
2232,372.1488743939228
2233,234.0644254868779
5265,60368.1993224339
2,8,10, 8, 0,10, 0.00,60.00,Monday
2232,390.29408213912867
2233,250.20438013722038
5265,88311.49903127004
2,8,10, 8, 0,11, 0.00,60.00,Monday
2232,361.40393489706659
2233,237.0458598280178
5265,90520.99822065437
2,8,10, 8, 0,12, 0.00,60.00,Monday
2232,322.78952529280488
2233,213.79813144867453
5265,129792.12710571669
2,8,10, 8, 0,13, 0.00,60.00,Monday
2232,290.094106313357
2233,190.4356894186718
5265,132443.53446067879
2,8,10, 8, 0,14, 0.00,60.00,Monday
2232,246.36950056514977
2233,158.79674437322448
5265,165532.98591288634
2,8,10, 8, 0,15, 0.00,60.00,Monday
2232,199.88287045838335
2233,126.5779276343972
5265,174822.41050804684
2,8,10, 8, 0,16, 0.00,60.00,Monday
2232,139.38105565075058
2233,87.60856256098288
5265,156185.77010739383
2,8,10, 8, 0,17, 0.00,60.00,Monday
2232,67.13887430823822
2233,42.52366759680506
5265,135130.91527428138
2,8,10, 8, 0,18, 0.00,60.00,Monday
2232,6.932949378144187
2233,4.3650035826250559
5265,52373.42386057368
2,8,10, 8, 0,19, 0.00,60.00,Monday
2232,0.0
2233,0.0
5265,25742.620692718116
2,8,10, 8, 0,20, 0.00,60.00,Monday
2232,0.0
2233,0.0
5265,10856.941107659915
2,8,10, 8, 0,21, 0.00,60.00,Monday
2232,0.0
2233,0.0
5265,8428.072593938568
2,8,10, 8, 0,22, 0.00,60.00,Monday
2232,0.0
2233,0.0
5265,7979.515682895842
2,8,10, 8, 0,23, 0.00,60.00,Monday
2232,0.0
2233,0.0
5265,7943.407181090675
2,8,10, 8, 0,24, 0.00,60.00,Monday
2232,0.0
2233,0.0
5265,7915.20958800906
2,9,10, 9, 0, 1, 0.00,60.00,Tuesday
2232,0.0
2233,0.0
5265,7120.5915495956
2,9,10, 9, 0, 2, 0.00,60.00,Tuesday
2232,0.0
2233,0.0
5265,7209.060658572204
2,9,10, 9, 0, 3, 0.00,60.00,Tuesday
2232,0.0
2233,0.0
5265,7156.0524311713125
2,9,10, 9, 0, 4, 0.00,60.00,Tuesday
2232,0.0
2233,0.0
5265,7082.27549654003
2,9,10, 9, 0, 5, 0.00,60.00,Tuesday
2232,0.0
2233,0.0
5265,7004.165349128461
2,9,10, 9, 0, 6, 0.00,60.00,Tuesday
2232,66.53449481871378
2233,25.4884997257103
5265,7131.557591274628
2,9,10, 9, 0, 7, 0.00,60.00,Tuesday
2232,452.61266859575746
2233,164.12362015131155
5265,7521.2229145925885
2,9,10, 9, 0, 8, 0.00,60.00,Tuesday
2232,464.48796338299845
2233,281.7826337365514
5265,20824.87459793616
2,9,10, 9, 0, 9, 0.00,60.00,Tuesday
2232,544.0091554061902
2233,335.86170310201006
5265,73756.13269972452
2,9,10, 9, 0,10, 0.00,60.00,Tuesday
2232,507.15566147213988
2233,320.9048397737573
5265,105930.40578041096
2,9,10, 9, 0,11, 0.00,60.00,Tuesday
2232,414.3399186300737
2233,270.44355419442118
5265,114656.41314901097
2,9,10, 9, 0,12, 0.00,60.00,Tuesday
2232,351.7800895144547
2233,234.28107694534766
5265,152615.40390270897
2,9,10, 9, 0,13, 0.00,60.00,Tuesday
2232,347.81435389731049
2233,228.50767608777134
5265,144445.8509896216
2,9,10, 9, 0,14, 0.00,60.00,Tuesday
2232,350.0903489143232
2233,222.77659339647395
5265,168170.7957751843
2,9,10, 9, 0,15, 0.00,60.00,Tuesday
2232,294.4568344649087
2233,182.09138942075507
5265,147194.30467866807
2,9,10, 9, 0,16, 0.00,60.00,Tuesday
2232,197.78168714072459
2233,122.36150266822881
5265,149761.6536268493
2,9,10, 9, 0,17, 0.00,60.00,Tuesday
2232,82.02743608898031
2233,51.37123451825633
5265,125507.83279368289
2,9,10, 9, 0,18, 0.00,60.00,Tuesday
2232,7.747073523818517
2233,4.8252175974916728
5265,111275.59807797359
2,9,10, 9, 0,19, 0.00,60.00,Tuesday
2232,0.0
2233,0.0
5265,66395.64673134801
2,9,10, 9, 0,20, 0.00,60.00,Tuesday
2232,0.0
2233,0.0
5265,32350.15317562237
2,9,10, 9, 0,21, 0.00,60.00,Tuesday
2232,0.0
2233,0.0
5265,8656.830151107755
2,9,10, 9, 0,22, 0.00,60.00,Tuesday
2232,0.0
2233,0.0
5265,8394.976009909158
2,9,10, 9, 0,23, 0.00,60.00,Tuesday
2232,0.0
2233,0.0
5265,8304.569351438606
2,9,10, 9, 0,24, 0.00,60.00,Tuesday
2232,0.0
2233,0.0
5265,8258.633443928307
2,10,10,10, 0, 1, 0.00,60.00,Wednesday
2232,0.0
2233,0.0
5265,8229.035587689104
2,10,10,10, 0, 2, 0.00,60.00,Wednesday
2232,0.0
2233,0.0
5265,8203.793163465934
2,10,10,10, 0, 3, 0.00,60.00,Wednesday
2232,0.0
2233,0.0
5265,8174.521310340281
2,10,10,10, 0, 4, 0.00,60.00,Wednesday
2232,0.0
2233,0.0
5265,8125.456259642415
2,10,10,10, 0, 5, 0.00,60.00,Wednesday
2232,0.0
2233,0.0
5265,8006.01816211523
2,10,10,10, 0, 6, 0.00,60.00,Wednesday
2232,35.5088488156163
2233,15.025410957348632
5265,8027.041098091223
2,10,10,10, 0, 7, 0.00,60.00,Wednesday
2232,210.73816492360457
2233,90.64009439711539
5265,8195.323882729324
2,10,10,10, 0, 8, 0.00,60.00,Wednesday
2232,264.0415400093506
2233,164.63538623474498
5265,25401.093808891106
2,10,10,10, 0, 9, 0.00,60.00,Wednesday
2232,399.56762703512688
2233,251.17608518252997
5265,81059.40467789503
2,10,10,10, 0,10, 0.00,60.00,Wednesday
2232,420.35068273479507
2233,269.46545347943819
5265,113668.28831425817
2,10,10,10, 0,11, 0.00,60.00,Wednesday
2232,373.5949839165714
2233,245.46547395339383
5265,135718.55638765024
2,10,10,10, 0,12, 0.00,60.00,Wednesday
2232,302.9158706373947
2233,202.54723243303614
5265,171932.80738964678
2,10,10,10, 0,13, 0.00,60.00,Wednesday
2232,326.15503831041857
2233,214.12971363407528
5265,172176.8923566023
2,10,10,10, 0,14, 0.00,60.00,Wednesday
2232,343.1824438320244
2233,218.0331640015977
5265,172376.13604443617
2,10,10,10, 0,15, 0.00,60.00,Wednesday
2232,321.14474092262858
2233,198.49771312570673
5265,178799.15024260965
2,10,10,10, 0,16, 0.00,60.00,Wednesday
2232,244.44816215549774
2233,148.80635380370425
5265,145204.01779587699
2,10,10,10, 0,17, 0.00,60.00,Wednesday
2232,126.18871633023126
2233,76.34547845800815
5265,83762.77910763545
2,10,10,10, 0,18, 0.00,60.00,Wednesday
2232,13.32045066301309
2233,7.950082799496066
5265,52929.779003129224
2,10,10,10, 0,19, 0.00,60.00,Wednesday
2232,0.0
2233,0.0
5265,23338.911972433027
2,10,10,10, 0,20, 0.00,60.00,Wednesday
2232,0.0
2233,0.0
5265,9365.682073321525
2,10,10,10, 0,21, 0.00,60.00,Wednesday
2232,0.0
2233,0.0
5265,8908.760575751769
2,10,10,10, 0,22, 0.00,60.00,Wednesday
2232,0.0
2233,0.0
5265,8464.123618059764
2,10,10,10, 0,23, 0.00,60.00,Wednesday
2232,0.0
2233,0.0
5265,8432.466512968485
2,10,10,10, 0,24, 0.00,60.00,Wednesday
2232,0.0
2233,0.0
5265,8395.131578654298
2,11,10,11, 0, 1, 0.00,60.00,Thursday
2232,0.0
2233,0.0
5265,8344.516751920219
2,11,10,11, 0, 2, 0.00,60.00,Thursday
2232,0.0
2233,0.0
5265,8283.973074893398
2,11,10,11, 0, 3, 0.00,60.00,Thursday
2232,0.0
2233,0.0
5265,8244.031929203144
2,11,10,11, 0, 4, 0.00,60.00,Thursday
2232,0.0
2233,0.0
5265,8217.444576781325
2,11,10,11, 0, 5, 0.00,60.00,Thursday
2232,0.0
2233,0.0
5265,8191.053849850247
2,11,10,11, 0, 6, 0.00,60.00,Thursday
2232,41.46398114585497
2233,16.843672273118537
5265,8212.638669889111
2,11,10,11, 0, 7, 0.00,60.00,Thursday
2232,250.97565012788605
2233,103.97982115795374
5265,8318.639162268935
2,11,10,11, 0, 8, 0.00,60.00,Thursday
2232,300.18884590001405
2233,187.53879641494712
5265,23844.941872967025
2,11,10,11, 0, 9, 0.00,60.00,Thursday
2232,383.85868139706857
2233,241.2849108754932
5265,114448.10334656855
2,11,10,11, 0,10, 0.00,60.00,Thursday
2232,390.59456957174049
2233,250.33129704901445
5265,148920.25597647075
2,11,10,11, 0,11, 0.00,60.00,Thursday
2232,362.5214570513604
2233,237.70148413327375
5265,167482.7937966199
2,11,10,11, 0,12, 0.00,60.00,Thursday
2232,342.06118210298998
2233,227.0409626380747
5265,169462.73784741466
2,11,10,11, 0,13, 0.00,60.00,Thursday
2232,329.7159697124205
2233,216.97181985717564
5265,172214.68894950144
2,11,10,11, 0,14, 0.00,60.00,Thursday
2232,313.4531560886756
2233,200.91886491915046
5265,184391.56150986497
2,11,10,11, 0,15, 0.00,60.00,Thursday
2232,273.9551684401817
2233,171.94689660490998
5265,180401.53275720255
2,11,10,11, 0,16, 0.00,60.00,Thursday
2232,193.91205782626239
2233,120.28457812043239
5265,182044.1450029692
2,11,10,11, 0,17, 0.00,60.00,Thursday
2232,92.5021473469393
2233,56.92460409808007
5265,168454.46572894808
2,11,10,11, 0,18, 0.00,60.00,Thursday
2232,9.421809751104002
2233,5.743815682856426
5265,88505.85203977418
2,11,10,11, 0,19, 0.00,60.00,Thursday
2232,0.0
2233,0.0
5265,63660.93665239619
2,11,10,11, 0,20, 0.00,60.00,Thursday
2232,0.0
2233,0.0
5265,45720.00231697888
2,11,10,11, 0,21, 0.00,60.00,Thursday
2232,0.0
2233,0.0
5265,8469.398074218532
2,11,10,11, 0,22, 0.00,60.00,Thursday
2232,0.0
2233,0.0
5265,8423.894726082908
2,11,10,11, 0,23, 0.00,60.00,Thursday
2232,0.0
2233,0.0
5265,8382.4263712918
2,11,10,11, 0,24, 0.00,60.00,Thursday
2232,0.0
2233,0.0
5265,8335.936121752626
2,12,10,12, 0, 1, 0.00,60.00,Friday
2232,0.0
2233,0.0
5265,8264.511717651383
2,12,10,12, 0, 2, 0.00,60.00,Friday
2232,0.0
2233,0.0
5265,8186.135222060075
2,12,10,12, 0, 3, 0.00,60.00,Friday
2232,0.0
2233,0.0
5265,8152.346726304557
2,12,10,12, 0, 4, 0.00,60.00,Friday
2232,0.0
2233,0.0
5265,8188.770379961229
2,12,10,12, 0, 5, 0.00,60.00,Friday
2232,0.0
2233,0.0
5265,8226.176591605361
2,12,10,12, 0, 6, 0.00,60.00,Friday
2232,38.85803449354985
2233,16.033595823447809
5265,8260.891523403945
2,12,10,12, 0, 7, 0.00,60.00,Friday
2232,242.9072225363183
2233,101.72134633392683
5265,8331.120137556709
2,12,10,12, 0, 8, 0.00,60.00,Friday
2232,306.83281919337886
2233,191.87085023483997
5265,29224.685340325046
2,12,10,12, 0, 9, 0.00,60.00,Friday
2232,395.71536535948845
2233,248.73095670661975
5265,92036.87287683533
2,12,10,12, 0,10, 0.00,60.00,Friday
2232,400.9459563309559
2233,256.9306601424848
5265,150659.9590590146
2,12,10,12, 0,11, 0.00,60.00,Friday
2232,366.057782019132
2233,240.10971271285454
5265,149064.83924245466
2,12,10,12, 0,12, 0.00,60.00,Friday
2232,336.1858958622565
2233,222.98439779995148
5265,151911.01684419963
2,12,10,12, 0,13, 0.00,60.00,Friday
2232,317.64964176802547
2233,208.70063325886145
5265,161246.28561322523
2,12,10,12, 0,14, 0.00,60.00,Friday
2232,298.94874855712819
2233,191.84982419831605
5265,168624.99140850086
2,12,10,12, 0,15, 0.00,60.00,Friday
2232,260.1483658838749
2233,163.3795397229454
5265,148984.69100767835
2,12,10,12, 0,16, 0.00,60.00,Friday
2232,187.6689599556081
2233,116.80313147920335
5265,131967.6763847257
2,12,10,12, 0,17, 0.00,60.00,Friday
2232,87.69616397413141
2233,54.28262623594816
5265,122254.06469989226
2,12,10,12, 0,18, 0.00,60.00,Friday
2232,8.687061425996872
2233,5.319063141191795
5265,56022.65632710729
2,12,10,12, 0,19, 0.00,60.00,Friday
2232,0.0
2233,0.0
5265,29689.97272809756
2,12,10,12, 0,20, 0.00,60.00,Friday
2232,0.0
2233,0.0
5265,18675.157824689173
2,12,10,12, 0,21, 0.00,60.00,Friday
2232,0.0
2233,0.0
5265,13467.812602408218
2,12,10,12, 0,22, 0.00,60.00,Friday
2232,0.0
2233,0.0
5265,8283.892801662207
2,12,10,12, 0,23, 0.00,60.00,Friday
2232,0.0
2233,0.0
5265,8186.292397688251
2,12,10,12, 0,24, 0.00,60.00,Friday
2232,0.0
2233,0.0
5265,8118.627805074569
2,13,10,13, 0, 1, 0.00,60.00,Saturday
2232,0.0
2233,0.0
5265,8108.414351134211
2,13,10,13, 0, 2, 0.00,60.00,Saturday
2232,0.0
2233,0.0
5265,8111.490549122773
2,13,10,13, 0, 3, 0.00,60.00,Saturday
2232,0.0
2233,0.0
5265,8114.530081733615
2,13,10,13, 0, 4, 0.00,60.00,Saturday
2232,0.0
2233,0.0
5265,8108.593200076921
2,13,10,13, 0, 5, 0.00,60.00,Saturday
2232,0.0
2233,0.0
5265,8102.801054807721
2,13,10,13, 0, 6, 0.00,60.00,Saturday
2232,41.544730304020209
2233,16.825989195603535
5265,8132.4947235813825
2,13,10,13, 0, 7, 0.00,60.00,Saturday
2232,250.97797589445566
2233,103.74278836622584
5265,8241.252406074957
2,13,10,13, 0, 8, 0.00,60.00,Saturday
2232,300.4634430220242
2233,187.75247040129316
5265,8386.178892149743
2,13,10,13, 0, 9, 0.00,60.00,Saturday
2232,394.223486512263
2233,247.78910840042466
5265,58373.32596806306
2,13,10,13, 0,10, 0.00,60.00,Saturday
2232,403.9185307911282
2233,258.8309251931543
5265,82976.19788644194
2,13,10,13, 0,11, 0.00,60.00,Saturday
2232,368.7353857976611
2233,241.9181750349528
5265,93944.89571905507
2,13,10,13, 0,12, 0.00,60.00,Saturday
2232,340.0670715112641
2233,225.79550714498382
5265,84461.18877005419
2,13,10,13, 0,13, 0.00,60.00,Saturday
2232,324.741719377424
2233,213.58844008337699
5265,64054.98782280532
2,13,10,13, 0,14, 0.00,60.00,Saturday
2232,309.85814778634298
2233,198.89262129936484
5265,57461.95577778094
2,13,10,13, 0,15, 0.00,60.00,Saturday
2232,268.9939050137287
2233,168.8463191578374
5265,57597.390666200845
2,13,10,13, 0,16, 0.00,60.00,Saturday
2232,192.9869544371536
2233,119.56891873698636
5265,51791.22756704006
2,13,10,13, 0,17, 0.00,60.00,Saturday
2232,89.87474154444472
2233,55.37931159843893
5265,42198.67781425165
2,13,10,13, 0,18, 0.00,60.00,Saturday
2232,8.913920844574717
2233,5.435982266507357
5265,36060.23411647522
2,13,10,13, 0,19, 0.00,60.00,Saturday
2232,0.0
2233,0.0
5265,28645.982240586793
2,13,10,13, 0,20, 0.00,60.00,Saturday
2232,0.0
2233,0.0
5265,12673.554153552186
2,13,10,13, 0,21, 0.00,60.00,Saturday
2232,0.0
2233,0.0
5265,12506.713688496066
2,13,10,13, 0,22, 0.00,60.00,Saturday
2232,0.0
2233,0.0
5265,8685.216597772394
2,13,10,13, 0,23, 0.00,60.00,Saturday
2232,0.0
2233,0.0
5265,8440.739820521716
2,13,10,13, 0,24, 0.00,60.00,Saturday