Program Version,EnergyPlus, Version 8.7.0-78a111df4a, YMD=2019.12.26 10:08
1,5,Environment Title[],Latitude[deg],Longitude[deg],Time Zone[],Elevation[m]
2,6,Day of Simulation[],Month[],Day of Month[],DST Indicator[1=yes 0=no],Hour[],StartMinute[],EndMinute[],DayType
3,3,Cumulative Day of Simulation[],Month[],Day of Month[],DST Indicator[1=yes 0=no],DayType  ! When Daily Report Variables Requested
4,2,Cumulative Days of Simulation[],Month[]  ! When Monthly Report Variables Requested
5,1,Cumulative Days of Simulation[] ! When Run Period Report Variables Requested
2232,1,AF305DAYLIGHINGCONTROL,Daylighting Reference Point 1 Illuminance [lux] !Hourly
2233,1,AF305DAYLIGHINGCONTROL,Daylighting Reference Point 2 Illuminance [lux] !Hourly
5265,1,Whole Building,Facility Total Electric Demand Power [W] !Hourly
End of Data Dictionary
1,RUNPERIOD,  10.30, 123.97,   8.00,  24.00
2,1,10, 1, 0, 1, 0.00,60.00,Monday
2232,0.0
2233,0.0
5265,7959.2340340260525
2,1,10, 1, 0, 2, 0.00,60.00,Monday
2232,0.0
2233,0.0
5265,7873.480624506763
2,1,10, 1, 0, 3, 0.00,60.00,Monday
2232,0.0
2233,0.0
5265,7736.39281216278
2,1,10, 1, 0, 4, 0.00,60.00,Monday
2232,0.0
2233,0.0
5265,7669.686931190198
2,1,10, 1, 0, 5, 0.00,60.00,Monday
2232,0.0
2233,0.0
5265,7605.573975803229
2,1,10, 1, 0, 6, 0.00,60.00,Monday
2232,9.832771766744415
2233,5.042545485008744
5265,7665.214675931843
2,1,10, 1, 0, 7, 0.00,60.00,Monday
2232,51.33921926751268
2233,29.968327810450277
5265,7801.817526176565
2,1,10, 1, 0, 8, 0.00,60.00,Monday
2232,82.36137872129099
2233,49.02243413164438
5265,29701.938650045155
2,1,10, 1, 0, 9, 0.00,60.00,Monday
2232,95.74392648329727
2233,58.46039244440896
5265,61848.50338016476
2,1,10, 1, 0,10, 0.00,60.00,Monday
2232,91.2340452878537
2233,57.49125705751943
5265,96199.4211061483
2,1,10, 1, 0,11, 0.00,60.00,Monday
2232,76.98482963229002
2233,50.31451752393701
5265,97931.51885578752
2,1,10, 1, 0,12, 0.00,60.00,Monday
2232,63.2809673639527
2233,42.29662081178092
5265,141604.59820598065
2,1,10, 1, 0,13, 0.00,60.00,Monday
2232,65.43473868153359
2233,43.02970341389629
5265,145039.4042143056
2,1,10, 1, 0,14, 0.00,60.00,Monday
2232,65.03559602783847
2233,41.59072049154836
5265,170319.78647607968
2,1,10, 1, 0,15, 0.00,60.00,Monday
2232,52.297075549602549
2233,32.74183840847565
5265,177555.71170813536
2,1,10, 1, 0,16, 0.00,60.00,Monday
2232,34.33544311017839
2233,21.41250896521844
5265,158697.68371688625
2,1,10, 1, 0,17, 0.00,60.00,Monday
2232,13.676154005319653
2233,8.662560779654328
5265,137192.77380015577
2,1,10, 1, 0,18, 0.00,60.00,Monday
2232,1.5517952301029253
2233,0.9832862356260742
5265,52784.818975842885
2,1,10, 1, 0,19, 0.00,60.00,Monday
2232,0.0
2233,0.0
5265,25999.083045837124
2,1,10, 1, 0,20, 0.00,60.00,Monday
2232,0.0
2233,0.0
5265,10994.476428200645
2,1,10, 1, 0,21, 0.00,60.00,Monday
2232,0.0
2233,0.0
5265,8577.795462242471
2,1,10, 1, 0,22, 0.00,60.00,Monday
2232,0.0
2233,0.0
5265,8150.562530488366
2,1,10, 1, 0,23, 0.00,60.00,Monday
2232,0.0
2233,0.0
5265,8136.888514586783
2,1,10, 1, 0,24, 0.00,60.00,Monday
2232,0.0
2233,0.0
5265,8119.398837225795
2,2,10, 2, 0, 1, 0.00,60.00,Tuesday
2232,0.0
2233,0.0
5265,7867.88330061716
2,2,10, 2, 0, 2, 0.00,60.00,Tuesday
2232,0.0
2233,0.0
5265,7777.1476081734
2,2,10, 2, 0, 3, 0.00,60.00,Tuesday
2232,0.0
2233,0.0
5265,7667.301407217766
2,2,10, 2, 0, 4, 0.00,60.00,Tuesday
2232,0.0
2233,0.0
5265,7551.190045651364
2,2,10, 2, 0, 5, 0.00,60.00,Tuesday
2232,0.0
2233,0.0
5265,7424.286700321288
2,2,10, 2, 0, 6, 0.00,60.00,Tuesday
2232,10.081684474958556
2233,5.141208616145178
5265,7536.338552744021
2,2,10, 2, 0, 7, 0.00,60.00,Tuesday
2232,53.186287631802
2233,30.74421463263518
5265,7972.732579801817
2,2,10, 2, 0, 8, 0.00,60.00,Tuesday
2232,86.43260528366767
2233,50.87049308366165
5265,21084.495961413428
2,2,10, 2, 0, 9, 0.00,60.00,Tuesday
2232,98.83178182206136
2233,60.15288242585666
5265,82346.46017097096
2,2,10, 2, 0,10, 0.00,60.00,Tuesday
2232,93.03989466665166
2233,58.54800154455484
5265,115205.90929378009
2,2,10, 2, 0,11, 0.00,60.00,Tuesday
2232,74.7005897560969
2233,48.82444861969825
5265,120925.85725725773
2,2,10, 2, 0,12, 0.00,60.00,Tuesday
2232,65.52442344347678
2233,43.70213491127554
5265,151738.6328218753
2,2,10, 2, 0,13, 0.00,60.00,Tuesday
2232,65.4947324250544
2233,42.98678981143704
5265,136588.60570392037
2,2,10, 2, 0,14, 0.00,60.00,Tuesday
2232,57.26781714039888
2233,36.66835067994282
5265,154141.4796466276
2,2,10, 2, 0,15, 0.00,60.00,Tuesday
2232,48.781270539660919
2233,30.601214220205916
5265,130313.27310140715
2,2,10, 2, 0,16, 0.00,60.00,Tuesday
2232,34.46367046035998
2233,21.484541233444124
5265,135051.86132021555
2,2,10, 2, 0,17, 0.00,60.00,Tuesday
2232,17.266832188597577
2233,10.883572599739042
5265,110847.06050792294
2,2,10, 2, 0,18, 0.00,60.00,Tuesday
2232,1.9572432875731865
2233,1.228268232585541
5265,109441.19910545259
2,2,10, 2, 0,19, 0.00,60.00,Tuesday
2232,0.0
2233,0.0
5265,64249.07299808992
2,2,10, 2, 0,20, 0.00,60.00,Tuesday
2232,0.0
2233,0.0
5265,31286.681564760223
2,2,10, 2, 0,21, 0.00,60.00,Tuesday
2232,0.0
2233,0.0
5265,8632.09762611168
2,2,10, 2, 0,22, 0.00,60.00,Tuesday
2232,0.0
2233,0.0
5265,8386.152243243805
2,2,10, 2, 0,23, 0.00,60.00,Tuesday
2232,0.0
2233,0.0
5265,8335.026467204432
2,2,10, 2, 0,24, 0.00,60.00,Tuesday
2232,0.0
2233,0.0
5265,8295.401821224472
2,3,10, 3, 0, 1, 0.00,60.00,Wednesday
2232,0.0
2233,0.0
5265,8218.903132084177
2,3,10, 3, 0, 2, 0.00,60.00,Wednesday
2232,0.0
2233,0.0
5265,8121.950194455774
2,3,10, 3, 0, 3, 0.00,60.00,Wednesday
2232,0.0
2233,0.0
5265,7992.122818873356
2,3,10, 3, 0, 4, 0.00,60.00,Wednesday
2232,0.0
2233,0.0
5265,7928.509336255766
2,3,10, 3, 0, 5, 0.00,60.00,Wednesday
2232,0.0
2233,0.0
5265,7856.33672454124
2,3,10, 3, 0, 6, 0.00,60.00,Wednesday
2232,4.109575212073634
2233,2.58410600806129
5265,7897.641580376349
2,3,10, 3, 0, 7, 0.00,60.00,Wednesday
2232,25.441185271681375
2233,16.098206134941674
5265,8081.325108747825
2,3,10, 3, 0, 8, 0.00,60.00,Wednesday
2232,52.93499763148437
2233,32.82345325953922
5265,25186.20994524461
2,3,10, 3, 0, 9, 0.00,60.00,Wednesday
2232,74.79941995820323
2233,46.70245279466648
5265,75691.05439934705
2,3,10, 3, 0,10, 0.00,60.00,Wednesday
2232,78.11459786292027
2233,49.90164581456315
5265,112756.83673532901
2,3,10, 3, 0,11, 0.00,60.00,Wednesday
2232,72.56438561683616
2233,47.63654452363707
5265,133384.7950868719
2,3,10, 3, 0,12, 0.00,60.00,Wednesday
2232,65.95152463696896
2233,43.72846611906576
5265,164777.6926580811
2,3,10, 3, 0,13, 0.00,60.00,Wednesday
2232,59.15252126481543
2233,38.78902281768166
5265,155796.17790812409
2,3,10, 3, 0,14, 0.00,60.00,Wednesday
2232,53.018072846471088
2233,34.043081349440409
5265,152865.20237996189
2,3,10, 3, 0,15, 0.00,60.00,Wednesday
2232,50.524747732478
2233,31.666582855050576
5265,158308.407822009
2,3,10, 3, 0,16, 0.00,60.00,Wednesday
2232,40.95891830715714
2233,25.46166830824029
5265,123409.38186705993
2,3,10, 3, 0,17, 0.00,60.00,Wednesday
2232,21.730287605454924
2233,13.432844769407945
5265,68402.49240324398
2,3,10, 3, 0,18, 0.00,60.00,Wednesday
2232,2.627042996850306
2233,1.5948327238523746
5265,52188.31736217005
2,3,10, 3, 0,19, 0.00,60.00,Wednesday
2232,0.0
2233,0.0
5265,22663.04861548352
2,3,10, 3, 0,20, 0.00,60.00,Wednesday
2232,0.0
2233,0.0
5265,9042.397569858804
2,3,10, 3, 0,21, 0.00,60.00,Wednesday
2232,0.0
2233,0.0
5265,8519.656976130174
2,3,10, 3, 0,22, 0.00,60.00,Wednesday
2232,0.0
2233,0.0
5265,8099.8497191630195
2,3,10, 3, 0,23, 0.00,60.00,Wednesday
2232,0.0
2233,0.0
5265,8126.1669229825975
2,3,10, 3, 0,24, 0.00,60.00,Wednesday
2232,0.0
2233,0.0
5265,8123.567146775113
2,4,10, 4, 0, 1, 0.00,60.00,Thursday
2232,0.0
2233,0.0
5265,8059.445665957645
2,4,10, 4, 0, 2, 0.00,60.00,Thursday
2232,0.0
2233,0.0
5265,7984.257691591555
2,4,10, 4, 0, 3, 0.00,60.00,Thursday
2232,0.0
2233,0.0
5265,7923.5749176475265
2,4,10, 4, 0, 4, 0.00,60.00,Thursday
2232,0.0
2233,0.0
5265,7908.460090768509
2,4,10, 4, 0, 5, 0.00,60.00,Thursday
2232,0.0
2233,0.0
5265,7906.542687718092
2,4,10, 4, 0, 6, 0.00,60.00,Thursday
2232,5.069563686852281
2233,3.1356523285850765
5265,7928.626864506714
2,4,10, 4, 0, 7, 0.00,60.00,Thursday
2232,31.445337214113523
2233,19.82164231506935
5265,8000.300629276187
2,4,10, 4, 0, 8, 0.00,60.00,Thursday
2232,62.350124995601827
2233,38.45880285139629
5265,22699.031137020433
2,4,10, 4, 0, 9, 0.00,60.00,Thursday
2232,77.11201054347616
2233,48.11096208933244
5265,96257.91241464978
2,4,10, 4, 0,10, 0.00,60.00,Thursday
2232,78.00232833760383
2233,49.84466652777328
5265,132089.24011030093
2,4,10, 4, 0,11, 0.00,60.00,Thursday
2232,72.23991869676046
2233,47.427703378117509
5265,157431.61746292434
2,4,10, 4, 0,12, 0.00,60.00,Thursday
2232,68.09080863849525
2233,45.218805360484079
5265,161777.51493185306
2,4,10, 4, 0,13, 0.00,60.00,Thursday
2232,66.45411840962014
2233,43.61313785878837
5265,164405.51673091143
2,4,10, 4, 0,14, 0.00,60.00,Thursday
2232,64.67798942590673
2233,41.34259463822507
5265,176301.92105801966
2,4,10, 4, 0,15, 0.00,60.00,Thursday
2232,60.347442832979798
2233,37.699859359772869
5265,165850.3763181376
2,4,10, 4, 0,16, 0.00,60.00,Thursday
2232,45.76207921131547
2233,28.19730149260755
5265,172087.54407643205
2,4,10, 4, 0,17, 0.00,60.00,Thursday
2232,23.584018739024029
2233,14.436484755477985
5265,160268.97059719734
2,4,10, 4, 0,18, 0.00,60.00,Thursday
2232,3.1086593078197497
2233,1.8606577321185188
5265,87294.9234797348
2,4,10, 4, 0,19, 0.00,60.00,Thursday
2232,0.0
2233,0.0
5265,62345.287996808205
2,4,10, 4, 0,20, 0.00,60.00,Thursday
2232,0.0
2233,0.0
5265,44474.35702236674
2,4,10, 4, 0,21, 0.00,60.00,Thursday
2232,0.0
2233,0.0
5265,8248.84657985771
2,4,10, 4, 0,22, 0.00,60.00,Thursday
2232,0.0
2233,0.0
5265,8236.80356546019
2,4,10, 4, 0,23, 0.00,60.00,Thursday
2232,0.0
2233,0.0
5265,8234.014732438978
2,4,10, 4, 0,24, 0.00,60.00,Thursday
2232,0.0
2233,0.0
5265,8190.4897343301345
2,5,10, 5, 0, 1, 0.00,60.00,Friday
2232,0.0
2233,0.0
5265,8093.750169465643
2,5,10, 5, 0, 2, 0.00,60.00,Friday
2232,0.0
2233,0.0
5265,7994.786715674317
2,5,10, 5, 0, 3, 0.00,60.00,Friday
2232,0.0
2233,0.0
5265,7930.291689937293
2,5,10, 5, 0, 4, 0.00,60.00,Friday
2232,0.0
2233,0.0
5265,7913.813525734309
2,5,10, 5, 0, 5, 0.00,60.00,Friday
2232,0.0
2233,0.0
5265,7905.567625255771
2,5,10, 5, 0, 6, 0.00,60.00,Friday
2232,7.592922501198653
2233,4.183116852107062
5265,7921.5474519447935
2,5,10, 5, 0, 7, 0.00,60.00,Friday
2232,42.25554892676533
2233,25.66183676909748
5265,7979.774875078184
2,5,10, 5, 0, 8, 0.00,60.00,Friday
2232,67.36212535111584
2233,41.31041395615157
5265,28011.262216850588
2,5,10, 5, 0, 9, 0.00,60.00,Friday
2232,79.4727305657817
2233,49.38808313200271
5265,70132.30282244759
2,5,10, 5, 0,10, 0.00,60.00,Friday
2232,76.99552495189492
2233,49.19295925080729
5265,137496.24180194635
2,5,10, 5, 0,11, 0.00,60.00,Friday
2232,71.08343189227488
2233,46.66519258223565
5265,136026.0033845743
2,5,10, 5, 0,12, 0.00,60.00,Friday
2232,64.63916073662277
2233,43.138693453208507
5265,142402.1523569268
2,5,10, 5, 0,13, 0.00,60.00,Friday
2232,67.68375281539353
2233,44.315096920823688
5265,156211.40937801582
2,5,10, 5, 0,14, 0.00,60.00,Friday
2232,75.97917780472973
2233,47.99102731293459
5265,166530.41294917759
2,5,10, 5, 0,15, 0.00,60.00,Friday
2232,72.07432640607574
2233,44.23801450419405
5265,145061.415940472
2,5,10, 5, 0,16, 0.00,60.00,Friday
2232,49.0665679703444
2233,29.867694061643947
5265,126184.88369386265
2,5,10, 5, 0,17, 0.00,60.00,Friday
2232,23.36964073680556
2233,14.288820592858026
5265,116957.94573003894
2,5,10, 5, 0,18, 0.00,60.00,Friday
2232,2.555128327426216
2233,1.5389523110139223
5265,55629.600793639904
2,5,10, 5, 0,19, 0.00,60.00,Friday
2232,0.0
2233,0.0
5265,29410.674113013
2,5,10, 5, 0,20, 0.00,60.00,Friday
2232,0.0
2233,0.0
5265,18541.491253276505
2,5,10, 5, 0,21, 0.00,60.00,Friday
2232,0.0
2233,0.0
5265,13411.169614681488
2,5,10, 5, 0,22, 0.00,60.00,Friday
2232,0.0
2233,0.0
5265,8302.385256053747
2,5,10, 5, 0,23, 0.00,60.00,Friday
2232,0.0
2233,0.0
5265,8274.6610094604
2,5,10, 5, 0,24, 0.00,60.00,Friday
2232,0.0
2233,0.0
5265,8251.785744148436
2,6,10, 6, 0, 1, 0.00,60.00,Saturday
2232,0.0
2233,0.0
5265,8227.092290450148
2,6,10, 6, 0, 2, 0.00,60.00,Saturday
2232,0.0
2233,0.0
5265,8211.745087087356
2,6,10, 6, 0, 3, 0.00,60.00,Saturday
2232,0.0
2233,0.0
5265,8186.1763357901245
2,6,10, 6, 0, 4, 0.00,60.00,Saturday
2232,0.0
2233,0.0
5265,8165.1273473812025
2,6,10, 6, 0, 5, 0.00,60.00,Saturday
2232,0.0
2233,0.0
5265,8148.091930887143
2,6,10, 6, 0, 6, 0.00,60.00,Saturday
2232,3.745436297916259
2233,2.363410142157852
5265,8123.044671147877
2,6,10, 6, 0, 7, 0.00,60.00,Saturday
2232,22.980224159839766
2233,14.556908296886065
5265,8088.073747255706
2,6,10, 6, 0, 8, 0.00,60.00,Saturday
2232,47.41970267250502
2233,29.38896809530965
5265,8084.534057445607
2,6,10, 6, 0, 9, 0.00,60.00,Saturday
2232,72.11951477129813
2233,45.040028383414249
5265,42017.617610649235
2,6,10, 6, 0,10, 0.00,60.00,Saturday
2232,77.87059811305562
2233,49.756372435685289
5265,62863.03457220164
2,6,10, 6, 0,11, 0.00,60.00,Saturday
2232,72.13850317074599
2233,47.38177745403948
5265,77315.49049848529
2,6,10, 6, 0,12, 0.00,60.00,Saturday
2232,69.29599870721748
2233,46.11662795224771
5265,71461.19539885178
2,6,10, 6, 0,13, 0.00,60.00,Saturday
2232,67.57009547624033
2233,44.38027871909156
5265,60027.249158196
2,6,10, 6, 0,14, 0.00,60.00,Saturday
2232,65.00577832739727
2233,41.54868769410065
5265,52716.39150605052
2,6,10, 6, 0,15, 0.00,60.00,Saturday
2232,58.23983338044582
2233,36.395025532646837
5265,52901.90953420754
2,6,10, 6, 0,16, 0.00,60.00,Saturday
2232,42.99149628053653
2233,26.64379846813608
5265,47742.450718410284
2,6,10, 6, 0,17, 0.00,60.00,Saturday
2232,21.76041608095959
2233,13.396278276780676
5265,39062.84939258679
2,6,10, 6, 0,18, 0.00,60.00,Saturday
2232,2.23041059387208
2233,1.3527761272708888
5265,35196.17321883032
2,6,10, 6, 0,19, 0.00,60.00,Saturday
2232,0.0
2233,0.0
5265,28437.524266959594
2,6,10, 6, 0,20, 0.00,60.00,Saturday
2232,0.0
2233,0.0
5265,11550.653583167235
2,6,10, 6, 0,21, 0.00,60.00,Saturday
2232,0.0
2233,0.0
5265,11437.326617759098
2,6,10, 6, 0,22, 0.00,60.00,Saturday
2232,0.0
2233,0.0
5265,8659.929748262692
2,6,10, 6, 0,23, 0.00,60.00,Saturday
2232,0.0
2233,0.0
5265,8333.537838187729
2,6,10, 6, 0,24, 0.00,60.00,Saturday
2232,0.0
2233,0.0
5265,8163.660278728296
2,7,10, 7, 0, 1, 0.00,60.00,Sunday
2232,0.0
2233,0.0
5265,8111.202482247805
2,7,10, 7, 0, 2, 0.00,60.00,Sunday
2232,0.0
2233,0.0
5265,8090.155648342062
2,7,10, 7, 0, 3, 0.00,60.00,Sunday
2232,0.0
2233,0.0
5265,8062.37310243419
2,7,10, 7, 0, 4, 0.00,60.00,Sunday
2232,0.0
2233,0.0
5265,8018.734225066746
2,7,10, 7, 0, 5, 0.00,60.00,Sunday
2232,0.0
2233,0.0
5265,7971.564423304116
2,7,10, 7, 0, 6, 0.00,60.00,Sunday
2232,3.8338916702296674
2233,2.4193907058668215
5265,7952.251588246166
2,7,10, 7, 0, 7, 0.00,60.00,Sunday
2232,24.293507291441427
2233,15.38513366634927
5265,7997.518313342406
2,7,10, 7, 0, 8, 0.00,60.00,Sunday
2232,51.70896047554471
2233,32.06878291008606
5265,8085.846554862585
2,7,10, 7, 0, 9, 0.00,60.00,Sunday
2232,68.7546638312587
2233,42.95165421411929
5265,8193.984124693228
2,7,10, 7, 0,10, 0.00,60.00,Sunday
2232,71.92806045769889
2233,45.96612766504109
5265,8297.56981592204
2,7,10, 7, 0,11, 0.00,60.00,Sunday
2232,67.96736530266689
2233,44.55408289157347
5265,8360.658693805277
2,7,10, 7, 0,12, 0.00,60.00,Sunday
2232,63.35921814079887
2233,41.96540798196955
5265,8362.419651984199
2,7,10, 7, 0,13, 0.00,60.00,Sunday
2232,61.75920223757689
2233,40.48157559688424
5265,8302.59724577555
2,7,10, 7, 0,14, 0.00,60.00,Sunday
2232,59.34880395489849
2233,37.95088195860582
5265,8241.296296139868
2,7,10, 7, 0,15, 0.00,60.00,Sunday
2232,55.320293631168109
2233,34.60987165801123
5265,8225.907498645138
2,7,10, 7, 0,16, 0.00,60.00,Sunday
2232,41.32871851328896
2233,25.660963109313994
5265,8280.416538718475
2,7,10, 7, 0,17, 0.00,60.00,Sunday
2232,20.900551411855245
2233,12.906925983112828
5265,8343.284995973807
2,7,10, 7, 0,18, 0.00,60.00,Sunday
2232,2.1477009063041767
2233,1.308877173930532
5265,8378.32262599058
2,7,10, 7, 0,19, 0.00,60.00,Sunday
2232,0.0
2233,0.0
5265,8344.888557940634
2,7,10, 7, 0,20, 0.00,60.00,Sunday
2232,0.0
2233,0.0
5265,8290.82378337969
2,7,10, 7, 0,21, 0.00,60.00,Sunday
2232,0.0
2233,0.0
5265,8239.39428167459
2,7,10, 7, 0,22, 0.00,60.00,Sunday
2232,0.0
2233,0.0
5265,8180.910664430896
2,7,10, 7, 0,23, 0.00,60.00,Sunday
2232,0.0
2233,0.0
5265,8115.165312058459
2,7,10, 7, 0,24, 0.00,60.00,Sunday
2232,0.0
2233,0.0
5265,8071.751144707306
2,8,10, 8, 0, 1, 0.00,60.00,Monday
2232,0.0
2233,0.0
5265,7698.376667773341
2,8,10, 8, 0, 2, 0.00,60.00,Monday
2232,0.0
2233,0.0
5265,7742.621717960744
2,8,10, 8, 0, 3, 0.00,60.00,Monday
2232,0.0
2233,0.0
5265,7689.925948879467
2,8,10, 8, 0, 4, 0.00,60.00,Monday
2232,0.0
2233,0.0
5265,7615.853338119475
2,8,10, 8, 0, 5, 0.00,60.00,Monday
2232,0.0
2233,0.0
5265,7548.412174881789
2,8,10, 8, 0, 6, 0.00,60.00,Monday
2232,4.076939432489646
2233,2.566058165866481
5265,7495.091409304536
2,8,10, 8, 0, 7, 0.00,60.00,Monday
2232,24.630609378474025
2233,15.604467940516854
5265,7471.492238146036
2,8,10, 8, 0, 8, 0.00,60.00,Monday
2232,48.418851181512319
2233,30.035071721261529
5265,29274.053845859173
2,8,10, 8, 0, 9, 0.00,60.00,Monday
2232,67.37426831637005
2233,42.10352214870863
5265,60329.55862856596
2,8,10, 8, 0,10, 0.00,60.00,Monday
2232,72.22440710600262
2233,46.15597150883628
5265,88209.76860122707
2,8,10, 8, 0,11, 0.00,60.00,Monday
2232,69.21287599152943
2233,45.39869453690571
5265,90382.80833215238
2,8,10, 8, 0,12, 0.00,60.00,Monday
2232,63.86744136635911
2233,42.31447684610765
5265,129638.87493534725
2,8,10, 8, 0,13, 0.00,60.00,Monday
2232,58.9295334432137
2233,38.63634882865679
5265,132296.78843596718
2,8,10, 8, 0,14, 0.00,60.00,Monday
2232,51.37207743674117
2233,33.00576204857699
5265,165472.909355166
2,8,10, 8, 0,15, 0.00,60.00,Monday
2232,42.623312054147238
2233,26.875236854750545
5265,174776.83976231016
2,8,10, 8, 0,16, 0.00,60.00,Monday
2232,29.944457197795044
2233,18.75349432294946
5265,156130.41335377153
2,8,10, 8, 0,17, 0.00,60.00,Monday
2232,14.254553283408475
2233,9.014921953549317
5265,135066.12095610635
2,8,10, 8, 0,18, 0.00,60.00,Monday
2232,1.480349502957824
2233,0.9322253267508915
5265,52367.77156877942
2,8,10, 8, 0,19, 0.00,60.00,Monday
2232,0.0
2233,0.0
5265,25739.4679833514
2,8,10, 8, 0,20, 0.00,60.00,Monday
2232,0.0
2233,0.0
5265,10855.946360711298
2,8,10, 8, 0,21, 0.00,60.00,Monday
2232,0.0
2233,0.0
5265,8427.067171104942
2,8,10, 8, 0,22, 0.00,60.00,Monday
2232,0.0
2233,0.0
5265,7978.519323328625
2,8,10, 8, 0,23, 0.00,60.00,Monday
2232,0.0
2233,0.0
5265,7942.427727076604
2,8,10, 8, 0,24, 0.00,60.00,Monday
2232,0.0
2233,0.0
5265,7914.250342202453
2,9,10, 9, 0, 1, 0.00,60.00,Tuesday
2232,0.0
2233,0.0
5265,7118.495555056973
2,9,10, 9, 0, 2, 0.00,60.00,Tuesday
2232,0.0
2233,0.0
5265,7207.281565435503
2,9,10, 9, 0, 3, 0.00,60.00,Tuesday
2232,0.0
2233,0.0
5265,7154.349535514295
2,9,10, 9, 0, 4, 0.00,60.00,Tuesday
2232,0.0
2233,0.0
5265,7080.629733334416
2,9,10, 9, 0, 5, 0.00,60.00,Tuesday
2232,0.0
2233,0.0
5265,7002.569997388203
2,9,10, 9, 0, 6, 0.00,60.00,Tuesday
2232,7.6144529103486369
2233,4.1906050364190039
5265,7130.039205391812
2,9,10, 9, 0, 7, 0.00,60.00,Tuesday
2232,44.41986507371994
2233,26.729424473185703
5265,7518.739944541361
2,9,10, 9, 0, 8, 0.00,60.00,Tuesday
2232,79.48518599309988
2233,47.835808138107918
5265,20821.88286234628
2,9,10, 9, 0, 9, 0.00,60.00,Tuesday
2232,95.30490954633935
2233,58.34987365418775
5265,73580.27454968059
2,9,10, 9, 0,10, 0.00,60.00,Tuesday
2232,91.10066894539027
2233,57.39829061949357
5265,105802.16524354521
2,9,10, 9, 0,11, 0.00,60.00,Tuesday
2232,77.24891267013087
2233,50.45855421763537
5265,114569.86337199506
2,9,10, 9, 0,12, 0.00,60.00,Tuesday
2232,68.89369540216416
2233,45.92917731399063
5265,152515.74335141525
2,9,10, 9, 0,13, 0.00,60.00,Tuesday
2232,71.6923432986685
2233,46.945141787495177
5265,144409.74563089107
2,9,10, 9, 0,14, 0.00,60.00,Tuesday
2232,75.4892568033142
2233,47.706170920092379
5265,168095.51463243963
2,9,10, 9, 0,15, 0.00,60.00,Tuesday
2232,65.6719334575207
2233,40.39612798500924
5265,147038.68868657424
2,9,10, 9, 0,16, 0.00,60.00,Tuesday
2232,43.70894762250963
2233,26.961664490835223
5265,149418.42702746197
2,9,10, 9, 0,17, 0.00,60.00,Tuesday
2232,17.717138520844835
2233,11.085607140642736
5265,125277.24251466495
2,9,10, 9, 0,18, 0.00,60.00,Tuesday
2232,1.6773793201718324
2233,1.0458816058687933
5265,111272.44913226261
2,9,10, 9, 0,19, 0.00,60.00,Tuesday
2232,0.0
2233,0.0
5265,66334.83006347544
2,9,10, 9, 0,20, 0.00,60.00,Tuesday
2232,0.0
2233,0.0
5265,32261.00407953699
2,9,10, 9, 0,21, 0.00,60.00,Tuesday
2232,0.0
2233,0.0
5265,8657.365337249343
2,9,10, 9, 0,22, 0.00,60.00,Tuesday
2232,0.0
2233,0.0
5265,8393.891789855055
2,9,10, 9, 0,23, 0.00,60.00,Tuesday
2232,0.0
2233,0.0
5265,8303.11011072275
2,9,10, 9, 0,24, 0.00,60.00,Tuesday
2232,0.0
2233,0.0
5265,8257.114984990514
2,10,10,10, 0, 1, 0.00,60.00,Wednesday
2232,0.0
2233,0.0
5265,8227.520130876934
2,10,10,10, 0, 2, 0.00,60.00,Wednesday
2232,0.0
2233,0.0
5265,8202.301203417288
2,10,10,10, 0, 3, 0.00,60.00,Wednesday
2232,0.0
2233,0.0
5265,8173.120012358976
2,10,10,10, 0, 4, 0.00,60.00,Wednesday
2232,0.0
2233,0.0
5265,8123.695856437897
2,10,10,10, 0, 5, 0.00,60.00,Wednesday
2232,0.0
2233,0.0
5265,8004.223856137913
2,10,10,10, 0, 6, 0.00,60.00,Wednesday
2232,4.2119237601442
2233,2.645251814120719
5265,8025.32163806337
2,10,10,10, 0, 7, 0.00,60.00,Wednesday
2232,25.011387177040324
2233,15.826021970641385
5265,8193.973597584341
2,10,10,10, 0, 8, 0.00,60.00,Wednesday
2232,47.53110441240091
2233,29.448219628090745
5265,25395.92305440037
2,10,10,10, 0, 9, 0.00,60.00,Wednesday
2232,72.08922936116504
2233,45.007893364609298
5265,80937.03948565091
2,10,10,10, 0,10, 0.00,60.00,Wednesday
2232,77.4207641255042
2233,49.46393873530923
5265,113535.66595216735
2,10,10,10, 0,11, 0.00,60.00,Wednesday
2232,70.76838104688227
2233,46.506150657107777
5265,135568.48255048824
2,10,10,10, 0,12, 0.00,60.00,Wednesday
2232,59.32102761709405
2233,39.695692695573168
5265,171797.0015835306
2,10,10,10, 0,13, 0.00,60.00,Wednesday
2232,67.40756230370362
2233,44.12388241214726
5265,172075.3852376791
2,10,10,10, 0,14, 0.00,60.00,Wednesday
2232,74.16706386738413
2233,46.82613662813932
5265,172349.08140390129
2,10,10,10, 0,15, 0.00,60.00,Wednesday
2232,71.5622162166935
2233,43.91276138196468
5265,178722.44441488773
2,10,10,10, 0,16, 0.00,60.00,Wednesday
2232,55.14575121872119
2233,33.34394300408921
5265,144704.32387494669
2,10,10,10, 0,17, 0.00,60.00,Wednesday
2232,28.3238277836444
2233,16.928684582884157
5265,83126.94133805315
2,10,10,10, 0,18, 0.00,60.00,Wednesday
2232,2.9865403941456329
2233,1.7329979543713965
5265,52928.220861403686
2,10,10,10, 0,19, 0.00,60.00,Wednesday
2232,0.0
2233,0.0
5265,23332.621091336565
2,10,10,10, 0,20, 0.00,60.00,Wednesday
2232,0.0
2233,0.0
5265,9363.135168454479
2,10,10,10, 0,21, 0.00,60.00,Wednesday
2232,0.0
2233,0.0
5265,8906.097268901556
2,10,10,10, 0,22, 0.00,60.00,Wednesday
2232,0.0
2233,0.0
5265,8461.424292333237
2,10,10,10, 0,23, 0.00,60.00,Wednesday
2232,0.0
2233,0.0
5265,8429.75455117574
2,10,10,10, 0,24, 0.00,60.00,Wednesday
2232,0.0
2233,0.0
5265,8392.421807566958
2,11,10,11, 0, 1, 0.00,60.00,Thursday
2232,0.0
2233,0.0
5265,8341.804300886108
2,11,10,11, 0, 2, 0.00,60.00,Thursday
2232,0.0
2233,0.0
5265,8281.248006173311
2,11,10,11, 0, 3, 0.00,60.00,Thursday
2232,0.0
2233,0.0
5265,8241.326451603132
2,11,10,11, 0, 4, 0.00,60.00,Thursday
2232,0.0
2233,0.0
5265,8214.779396360484
2,11,10,11, 0, 5, 0.00,60.00,Thursday
2232,0.0
2233,0.0
5265,8188.431172257285
2,11,10,11, 0, 6, 0.00,60.00,Thursday
2232,4.697269167790012
2233,2.9260968665000237
5265,8210.104326549166
2,11,10,11, 0, 7, 0.00,60.00,Thursday
2232,28.35627486058714
2233,17.89665463485703
5265,8316.259039214901
2,11,10,11, 0, 8, 0.00,60.00,Thursday
2232,53.72035255922824
2233,33.29949110520075
5265,23841.304298915366
2,11,10,11, 0, 9, 0.00,60.00,Thursday
2232,69.42783348816514
2233,43.35543423784966
5265,114294.39010982959
2,11,10,11, 0,10, 0.00,60.00,Thursday
2232,72.34541280503008
2233,46.22228655332585
5265,148732.71421859673
2,11,10,11, 0,11, 0.00,60.00,Thursday
2232,69.47942446350165
2233,45.55844349856994
5265,167397.05805223264
2,11,10,11, 0,12, 0.00,60.00,Thursday
2232,67.62159219211682
2233,44.89837562324572
5265,169387.46940710888
2,11,10,11, 0,13, 0.00,60.00,Thursday
2232,67.31935843836804
2233,44.224249328091129
5265,172179.06898911837
2,11,10,11, 0,14, 0.00,60.00,Thursday
2232,66.6661100518099
2233,42.54515005476209
5265,184378.43612080735
2,11,10,11, 0,15, 0.00,60.00,Thursday
2232,59.639800430238867
2233,37.25643265987968
5265,180287.19520647356
2,11,10,11, 0,16, 0.00,60.00,Thursday
2232,42.67060866174912
2233,26.388859340609029
5265,181889.17237612629
2,11,10,11, 0,17, 0.00,60.00,Thursday
2232,20.459960009259829
2233,12.599574599683536
5265,168316.49390294867
2,11,10,11, 0,18, 0.00,60.00,Thursday
2232,2.0885976842417226
2233,1.2701402225085386
5265,88468.09575751437
2,11,10,11, 0,19, 0.00,60.00,Thursday
2232,0.0
2233,0.0
5265,63635.61657467206
2,11,10,11, 0,20, 0.00,60.00,Thursday
2232,0.0
2233,0.0
5265,45701.25363686597
2,11,10,11, 0,21, 0.00,60.00,Thursday
2232,0.0
2233,0.0
5265,8466.666047906043
2,11,10,11, 0,22, 0.00,60.00,Thursday
2232,0.0
2233,0.0
5265,8421.903071748247
2,11,10,11, 0,23, 0.00,60.00,Thursday
2232,0.0
2233,0.0
5265,8379.96448065601
2,11,10,11, 0,24, 0.00,60.00,Thursday
2232,0.0
2233,0.0
5265,8333.445606882622
2,12,10,12, 0, 1, 0.00,60.00,Friday
2232,0.0
2233,0.0
5265,8261.998467784719
2,12,10,12, 0, 2, 0.00,60.00,Friday
2232,0.0
2233,0.0
5265,8183.592451689925
2,12,10,12, 0, 3, 0.00,60.00,Friday
2232,0.0
2233,0.0
5265,8149.8225089277
2,12,10,12, 0, 4, 0.00,60.00,Friday
2232,0.0
2233,0.0
5265,8186.35427347048
2,12,10,12, 0, 5, 0.00,60.00,Friday
2232,0.0
2233,0.0
5265,8223.872679040307
2,12,10,12, 0, 6, 0.00,60.00,Friday
2232,4.475916914419887
2233,2.800196473674371
5265,8258.686432764758
2,12,10,12, 0, 7, 0.00,60.00,Friday
2232,27.780398644949199
2233,17.53604995154709
5265,8329.008309524916
2,12,10,12, 0, 8, 0.00,60.00,Friday
2232,54.81131649640892
2233,33.99222808447547
5265,29218.277632498546
2,12,10,12, 0, 9, 0.00,60.00,Friday
2232,71.4165039969079
2233,44.584438220896547
5265,91784.92754309079
2,12,10,12, 0,10, 0.00,60.00,Friday
2232,74.07775717907454
2233,47.31635264021842
5265,150581.45620920845
2,12,10,12, 0,11, 0.00,60.00,Friday
2232,70.04737839383586
2233,45.94852780004206
5265,148979.12796781734
2,12,10,12, 0,12, 0.00,60.00,Friday
2232,66.47761420382769
2233,44.10713314414583
5265,151816.20811391003
2,12,10,12, 0,13, 0.00,60.00,Friday
2232,64.73940965298987
2233,42.469506873780797
5265,161173.2083014819
2,12,10,12, 0,14, 0.00,60.00,Friday
2232,63.10479931581937
2233,40.338985710003218
5265,168559.49395646447
2,12,10,12, 0,15, 0.00,60.00,Friday
2232,56.424080684359868
2233,35.271615344764338
5265,148748.75703896106
2,12,10,12, 0,16, 0.00,60.00,Friday
2232,41.079985332260509
2233,25.486211570658527
5265,131572.9648168677
2,12,10,12, 0,17, 0.00,60.00,Friday
2232,19.24407886127462
2233,11.912814646694818
5265,122015.85385035417
2,12,10,12, 0,18, 0.00,60.00,Friday
2232,1.9185775419632088
2233,1.1752618172636956
5265,56021.64856766024
2,12,10,12, 0,19, 0.00,60.00,Friday
2232,0.0
2233,0.0
5265,29686.72647204244
2,12,10,12, 0,20, 0.00,60.00,Friday
2232,0.0
2233,0.0
5265,18672.198826466443
2,12,10,12, 0,21, 0.00,60.00,Friday
2232,0.0
2233,0.0
5265,13465.181014624715
2,12,10,12, 0,22, 0.00,60.00,Friday
2232,0.0
2233,0.0
5265,8281.713703951324
2,12,10,12, 0,23, 0.00,60.00,Friday
2232,0.0
2233,0.0
5265,8184.047521500495
2,12,10,12, 0,24, 0.00,60.00,Friday
2232,0.0
2233,0.0
5265,8116.356621736838
2,13,10,13, 0, 1, 0.00,60.00,Saturday
2232,0.0
2233,0.0
5265,8106.180895712106
2,13,10,13, 0, 2, 0.00,60.00,Saturday
2232,0.0
2233,0.0
5265,8109.302913806266
2,13,10,13, 0, 3, 0.00,60.00,Saturday
2232,0.0
2233,0.0
5265,8112.384528282621
2,13,10,13, 0, 4, 0.00,60.00,Saturday
2232,0.0
2233,0.0
5265,8106.488888246743
2,13,10,13, 0, 5, 0.00,60.00,Saturday
2232,0.0
2233,0.0
5265,8100.743542255955
2,13,10,13, 0, 6, 0.00,60.00,Saturday
2232,4.689777565521629
2233,2.922139712559453
5265,8130.514315456966
2,13,10,13, 0, 7, 0.00,60.00,Saturday
2232,28.276565137009198
2233,17.84979893660079
5265,8239.375064396074
2,13,10,13, 0, 8, 0.00,60.00,Saturday
2232,53.751155814763148
2233,33.32314471916761
5265,8384.500569184725
2,13,10,13, 0, 9, 0.00,60.00,Saturday
2232,71.16899687067185
2233,44.43101549069085
5265,58306.22498839366
2,13,10,13, 0,10, 0.00,60.00,Saturday
2232,74.58845627437556
2233,47.64048736084953
5265,82807.54528308769
2,13,10,13, 0,11, 0.00,60.00,Saturday
2232,70.50772694485852
2233,46.261068353737908
5265,93784.4908512116
2,13,10,13, 0,12, 0.00,60.00,Saturday
2232,67.21326467028277
2233,44.643166780833897
5265,84307.9190016538
2,13,10,13, 0,13, 0.00,60.00,Saturday
2232,66.27071054873771
2233,43.515133362000749
5265,63975.160739196384
2,13,10,13, 0,14, 0.00,60.00,Saturday
2232,65.60122891687833
2233,41.93442667030341
5265,57377.87405625854
2,13,10,13, 0,15, 0.00,60.00,Saturday
2232,58.50370182362676
2233,36.55055843273057
5265,57454.42608125165
2,13,10,13, 0,16, 0.00,60.00,Saturday
2232,42.54345695274849
2233,26.280753578058819
5265,51700.89549890637
2,13,10,13, 0,17, 0.00,60.00,Saturday
2232,19.844430861015714
2233,12.234383252108563
5265,42132.832363907524
2,13,10,13, 0,18, 0.00,60.00,Saturday
2232,1.9755776635784557
2233,1.2023438137759986
5265,36011.12878871522
2,13,10,13, 0,19, 0.00,60.00,Saturday
2232,0.0
2233,0.0
5265,28637.980488356585
2,13,10,13, 0,20, 0.00,60.00,Saturday
2232,0.0
2233,0.0
5265,12608.786766737308
2,13,10,13, 0,21, 0.00,60.00,Saturday
2232,0.0
2233,0.0
5265,12456.051674440028
2,13,10,13, 0,22, 0.00,60.00,Saturday
2232,0.0
2233,0.0
5265,8686.196754520204
2,13,10,13, 0,23, 0.00,60.00,Saturday
2232,0.0
2233,0.0
5265,8439.505433815648
2,13,10,13, 0,24, 0.00,60.00,Saturday
2232,0.0
2233,0.0
5265,8351.921465377594
2,14,10,14, 0, 1, 0.00,60.00,Sunday
2232,0.0