Program Version,EnergyPlus, Version 8.7.0-78a111df4a, YMD=2019.12.26 10:23
1,5,Environment Title[],Latitude[deg],Longitude[deg],Time Zone[],Elevation[m]
2,6,Day of Simulation[],Month[],Day of Month[],DST Indicator[1=yes 0=no],Hour[],StartMinute[],EndMinute[],DayType
3,3,Cumulative Day of Simulation[],Month[],Day of Month[],DST Indicator[1=yes 0=no],DayType  ! When Daily Report Variables Requested
4,2,Cumulative Days of Simulation[],Month[]  ! When Monthly Report Variables Requested
5,1,Cumulative Days of Simulation[] ! When Run Period Report Variables Requested
2232,1,AF305DAYLIGHINGCONTROL,Daylighting Reference Point 1 Illuminance [lux] !Hourly
2233,1,AF305DAYLIGHINGCONTROL,Daylighting Reference Point 2 Illuminance [lux] !Hourly
5265,1,Whole Building,Facility Total Electric Demand Power [W] !Hourly
End of Data Dictionary
1,RUNPERIOD,  10.30, 123.97,   8.00,  24.00
2,1,10, 1, 0, 1, 0.00,60.00,Monday
2232,0.0
2233,0.0
5265,7959.2340340260525
2,1,10, 1, 0, 2, 0.00,60.00,Monday
2232,0.0
2233,0.0
5265,7873.480624506763
2,1,10, 1, 0, 3, 0.00,60.00,Monday
2232,0.0
2233,0.0
5265,7736.39281216278
2,1,10, 1, 0, 4, 0.00,60.00,Monday
2232,0.0
2233,0.0
5265,7669.686931190198
2,1,10, 1, 0, 5, 0.00,60.00,Monday
2232,0.0
2233,0.0
5265,7605.573975803229
2,1,10, 1, 0, 6, 0.00,60.00,Monday
2232,69.69009142888507
2233,36.03199009256755
5265,7665.214675931843
2,1,10, 1, 0, 7, 0.00,60.00,Monday
2232,364.09550715352517
2233,213.94987506382487
5265,7801.817526176565
2,1,10, 1, 0, 8, 0.00,60.00,Monday
2232,584.0963837104197
2233,349.8801774353406
5265,29701.938650045155
2,1,10, 1, 0, 9, 0.00,60.00,Monday
2232,679.3561105293503
2233,417.4348577243409
5265,61848.50338016476
2,1,10, 1, 0,10, 0.00,60.00,Monday
2232,647.6045685353828
2233,410.56461329507786
5265,96199.4211061483
2,1,10, 1, 0,11, 0.00,60.00,Monday
2232,546.7765808617545
2233,359.4210224593923
5265,97931.51885578752
2,1,10, 1, 0,12, 0.00,60.00,Monday
2232,449.69339041754599
2233,302.2793639911402
5265,141604.59820598065
2,1,10, 1, 0,13, 0.00,60.00,Monday
2232,464.78434361177878
2233,307.40183887106039
5265,145039.4042143056
2,1,10, 1, 0,14, 0.00,60.00,Monday
2232,461.6930666201262
2233,297.0090742833701
5265,170319.78647607968
2,1,10, 1, 0,15, 0.00,60.00,Monday
2232,371.1292701160712
2233,233.76642833610092
5265,177555.71170813536
2,1,10, 1, 0,16, 0.00,60.00,Monday
2232,243.6053094706964
2233,152.83261296308712
5265,158697.68371688625
2,1,10, 1, 0,17, 0.00,60.00,Monday
2232,97.02325350592476
2233,61.80933245731751
5265,137192.77380015577
2,1,10, 1, 0,18, 0.00,60.00,Monday
2232,11.007979523436412
2233,7.014982161884991
5265,52784.818975842885
2,1,10, 1, 0,19, 0.00,60.00,Monday
2232,0.0
2233,0.0
5265,25999.083045837124
2,1,10, 1, 0,20, 0.00,60.00,Monday
2232,0.0
2233,0.0
5265,10994.476428200645
2,1,10, 1, 0,21, 0.00,60.00,Monday
2232,0.0
2233,0.0
5265,8577.795462242471
2,1,10, 1, 0,22, 0.00,60.00,Monday
2232,0.0
2233,0.0
5265,8150.562530488366
2,1,10, 1, 0,23, 0.00,60.00,Monday
2232,0.0
2233,0.0
5265,8136.888514586783
2,1,10, 1, 0,24, 0.00,60.00,Monday
2232,0.0
2233,0.0
5265,8119.398837225795
2,2,10, 2, 0, 1, 0.00,60.00,Tuesday
2232,0.0
2233,0.0
5265,7867.88330061716
2,2,10, 2, 0, 2, 0.00,60.00,Tuesday
2232,0.0
2233,0.0
5265,7777.1476081734
2,2,10, 2, 0, 3, 0.00,60.00,Tuesday
2232,0.0
2233,0.0
5265,7667.301407217766
2,2,10, 2, 0, 4, 0.00,60.00,Tuesday
2232,0.0
2233,0.0
5265,7551.190045651364
2,2,10, 2, 0, 5, 0.00,60.00,Tuesday
2232,0.0
2233,0.0
5265,7424.286700321288
2,2,10, 2, 0, 6, 0.00,60.00,Tuesday
2232,71.45218447371923
2233,36.738227788422
5265,7536.338552744021
2,2,10, 2, 0, 7, 0.00,60.00,Tuesday
2232,377.176441625985
2233,219.50304315186478
5265,7972.732579801817
2,2,10, 2, 0, 8, 0.00,60.00,Tuesday
2232,612.9448259504512
2233,363.103716850577
5265,21084.495961413428
2,2,10, 2, 0, 9, 0.00,60.00,Tuesday
2232,701.2407108385918
2233,429.5150331123452
5265,82346.46017097096
2,2,10, 2, 0,10, 0.00,60.00,Tuesday
2232,660.4061884890288
2233,418.10333245194189
5265,115205.90929378009
2,2,10, 2, 0,11, 0.00,60.00,Tuesday
2232,530.564574908378
2233,348.7889750194461
5265,120925.85725725773
2,2,10, 2, 0,12, 0.00,60.00,Tuesday
2232,465.47302674708768
2233,312.1876365903242
5265,151738.6328218753
2,2,10, 2, 0,13, 0.00,60.00,Tuesday
2232,465.06547415320099
2233,306.9702600496153
5265,136588.60570392037
2,2,10, 2, 0,14, 0.00,60.00,Tuesday
2232,406.51044948915645
2233,261.81688431407687
5265,154141.4796466276
2,2,10, 2, 0,15, 0.00,60.00,Tuesday
2232,346.17208921827827
2233,218.47042491476643
5265,130313.27310140715
2,2,10, 2, 0,16, 0.00,60.00,Tuesday
2232,244.514193932099
2233,153.34669345485689
5265,135051.86132021555
2,2,10, 2, 0,17, 0.00,60.00,Tuesday
2232,122.49437366804303
2233,77.65945998873484
5265,110847.06050792294
2,2,10, 2, 0,18, 0.00,60.00,Tuesday
2232,13.882840988154575
2233,8.762644191249456
5265,109441.19910545259
2,2,10, 2, 0,19, 0.00,60.00,Tuesday
2232,0.0
2233,0.0
5265,64249.07299808992
2,2,10, 2, 0,20, 0.00,60.00,Tuesday
2232,0.0
2233,0.0
5265,31286.681564760223
2,2,10, 2, 0,21, 0.00,60.00,Tuesday
2232,0.0
2233,0.0
5265,8632.09762611168
2,2,10, 2, 0,22, 0.00,60.00,Tuesday
2232,0.0
2233,0.0
5265,8386.152243243805
2,2,10, 2, 0,23, 0.00,60.00,Tuesday
2232,0.0
2233,0.0
5265,8335.026467204432
2,2,10, 2, 0,24, 0.00,60.00,Tuesday
2232,0.0
2233,0.0
5265,8295.401821224472
2,3,10, 3, 0, 1, 0.00,60.00,Wednesday
2232,0.0
2233,0.0
5265,8218.903132084177
2,3,10, 3, 0, 2, 0.00,60.00,Wednesday
2232,0.0
2233,0.0
5265,8121.950194455774
2,3,10, 3, 0, 3, 0.00,60.00,Wednesday
2232,0.0
2233,0.0
5265,7992.122818873356
2,3,10, 3, 0, 4, 0.00,60.00,Wednesday
2232,0.0
2233,0.0
5265,7928.509336255766
2,3,10, 3, 0, 5, 0.00,60.00,Wednesday
2232,0.0
2233,0.0
5265,7856.33672454124
2,3,10, 3, 0, 6, 0.00,60.00,Wednesday
2232,29.147140367880217
2233,18.432139731173768
5265,7897.641580376349
2,3,10, 3, 0, 7, 0.00,60.00,Wednesday
2232,180.46523737250679
2233,114.83941578487948
5265,8081.325108747825
2,3,10, 3, 0, 8, 0.00,60.00,Wednesday
2232,375.46458492394029
2233,234.19602501897908
5265,25186.20994524461
2,3,10, 3, 0, 9, 0.00,60.00,Wednesday
2232,530.7103847152143
2233,333.34803362953
5265,75691.05439934705
2,3,10, 3, 0,10, 0.00,60.00,Wednesday
2232,554.4304024431409
2233,356.25690435230316
5265,112756.83673532901
2,3,10, 3, 0,11, 0.00,60.00,Wednesday
2232,515.2332121165377
2233,340.1406888942741
5265,133384.7950868719
2,3,10, 3, 0,12, 0.00,60.00,Wednesday
2232,468.3191784198286
2233,312.230160103969
5265,164777.6926580811
2,3,10, 3, 0,13, 0.00,60.00,Wednesday
2232,419.9674411331453
2233,276.9390797259668
5265,155796.17790812409
2,3,10, 3, 0,14, 0.00,60.00,Wednesday
2232,376.3278305893046
2233,243.04767089936119
5265,152865.20237996189
2,3,10, 3, 0,15, 0.00,60.00,Wednesday
2232,358.5484982368809
2233,226.08295483199323
5265,158308.407822009
2,3,10, 3, 0,16, 0.00,60.00,Wednesday
2232,290.60526238705236
2233,181.74837914483428
5265,123409.38186705993
2,3,10, 3, 0,17, 0.00,60.00,Wednesday
2232,154.13734377474348
2233,95.85418772036411
5265,68402.49240324398
2,3,10, 3, 0,18, 0.00,60.00,Wednesday
2232,18.62840066679365
2233,11.377681501524658
5265,52188.31736217005
2,3,10, 3, 0,19, 0.00,60.00,Wednesday
2232,0.0
2233,0.0
5265,22663.04861548352
2,3,10, 3, 0,20, 0.00,60.00,Wednesday
2232,0.0
2233,0.0
5265,9042.397569858804
2,3,10, 3, 0,21, 0.00,60.00,Wednesday
2232,0.0
2233,0.0
5265,8519.656976130174
2,3,10, 3, 0,22, 0.00,60.00,Wednesday
2232,0.0
2233,0.0
5265,8099.8497191630195
2,3,10, 3, 0,23, 0.00,60.00,Wednesday
2232,0.0
2233,0.0
5265,8126.1669229825975
2,3,10, 3, 0,24, 0.00,60.00,Wednesday
2232,0.0
2233,0.0
5265,8123.567146775113
2,4,10, 4, 0, 1, 0.00,60.00,Thursday
2232,0.0
2233,0.0
5265,8059.445665957645
2,4,10, 4, 0, 2, 0.00,60.00,Thursday
2232,0.0
2233,0.0
5265,7984.257691591555
2,4,10, 4, 0, 3, 0.00,60.00,Thursday
2232,0.0
2233,0.0
5265,7923.5749176475265
2,4,10, 4, 0, 4, 0.00,60.00,Thursday
2232,0.0
2233,0.0
5265,7908.460090768509
2,4,10, 4, 0, 5, 0.00,60.00,Thursday
2232,0.0
2233,0.0
5265,7906.542687718092
2,4,10, 4, 0, 6, 0.00,60.00,Thursday
2232,35.952646351127679
2233,22.368033865746054
5265,7928.626864506714
2,4,10, 4, 0, 7, 0.00,60.00,Thursday
2232,223.04463188572883
2233,141.3961481736906
5265,8000.300629276187
2,4,10, 4, 0, 8, 0.00,60.00,Thursday
2232,442.22366470456157
2233,274.39997381524025
5265,22699.031137020433
2,4,10, 4, 0, 9, 0.00,60.00,Thursday
2232,547.1327142158821
2233,343.4181344693882
5265,96257.91241464978
2,4,10, 4, 0,10, 0.00,60.00,Thursday
2232,553.6413167514414
2233,355.855970724031
5265,132089.24011030093
2,4,10, 4, 0,11, 0.00,60.00,Thursday
2232,512.9309972674195
2233,338.65055756113159
5265,157431.61746292434
2,4,10, 4, 0,12, 0.00,60.00,Thursday
2232,483.5517747885618
2233,322.90265970178185
5265,161777.51493185306
2,4,10, 4, 0,13, 0.00,60.00,Thursday
2232,471.8900080359258
2233,311.454594068733
5265,164405.51673091143
2,4,10, 4, 0,14, 0.00,60.00,Thursday
2232,459.15043278608649
2233,295.2354507075817
5265,176301.92105801966
2,4,10, 4, 0,15, 0.00,60.00,Thursday
2232,428.29095027750778
2233,269.20321534909859
5265,165850.3763181376
2,4,10, 4, 0,16, 0.00,60.00,Thursday
2232,324.68361230426435
2233,201.29984894524763
5265,172087.54407643205
2,4,10, 4, 0,17, 0.00,60.00,Thursday
2232,167.27622909799747
2233,103.01997373563632
5265,160268.97059719734
2,4,10, 4, 0,18, 0.00,60.00,Thursday
2232,22.041367913242639
2233,13.27449786039122
5265,87294.9234797348
2,4,10, 4, 0,19, 0.00,60.00,Thursday
2232,0.0
2233,0.0
5265,62345.287996808205
2,4,10, 4, 0,20, 0.00,60.00,Thursday
2232,0.0
2233,0.0
5265,44474.35702236674
2,4,10, 4, 0,21, 0.00,60.00,Thursday
2232,0.0
2233,0.0
5265,8248.84657985771
2,4,10, 4, 0,22, 0.00,60.00,Thursday
2232,0.0
2233,0.0
5265,8236.80356546019
2,4,10, 4, 0,23, 0.00,60.00,Thursday
2232,0.0
2233,0.0
5265,8234.014732438978
2,4,10, 4, 0,24, 0.00,60.00,Thursday
2232,0.0
2233,0.0
5265,8190.4897343301345
2,5,10, 5, 0, 1, 0.00,60.00,Friday
2232,0.0
2233,0.0
5265,8093.750169465643
2,5,10, 5, 0, 2, 0.00,60.00,Friday
2232,0.0
2233,0.0
5265,7994.786715674317
2,5,10, 5, 0, 3, 0.00,60.00,Friday
2232,0.0
2233,0.0
5265,7930.291689937293
2,5,10, 5, 0, 4, 0.00,60.00,Friday
2232,0.0
2233,0.0
5265,7913.813525734309
2,5,10, 5, 0, 5, 0.00,60.00,Friday
2232,0.0
2233,0.0
5265,7905.567625255771
2,5,10, 5, 0, 6, 0.00,60.00,Friday
2232,53.825453415833958
2233,29.86891559426715
5265,7921.5474519447935
2,5,10, 5, 0, 7, 0.00,60.00,Friday
2232,299.68460078412036
2233,183.1137953304068
5265,7979.774875078184
2,5,10, 5, 0, 8, 0.00,60.00,Friday
2232,477.7500490756768
2233,294.74665319643176
5265,28011.262216850588
2,5,10, 5, 0, 9, 0.00,60.00,Friday
2232,563.8788504416129
2233,352.5493697789553
5265,70132.30282244759
2,5,10, 5, 0,10, 0.00,60.00,Friday
2232,546.4879931353057
2233,351.1972984665313
5265,137496.24180194635
2,5,10, 5, 0,11, 0.00,60.00,Friday
2232,504.70991735592778
2233,333.1974816284309
5265,136026.0033845743
2,5,10, 5, 0,12, 0.00,60.00,Friday
2232,459.19965609826797
2233,308.1741632787644
5265,142402.1523569268
2,5,10, 5, 0,13, 0.00,60.00,Friday
2232,480.84354195529979
2233,316.67856563023369
5265,156211.40937801582
2,5,10, 5, 0,14, 0.00,60.00,Friday
2232,539.4720013498128
2233,342.8530769894066
5265,166530.41294917759
2,5,10, 5, 0,15, 0.00,60.00,Friday
2232,511.5258170598774
2233,315.97450159686135
5265,145061.415940472
2,5,10, 5, 0,16, 0.00,60.00,Friday
2232,348.12363047331157
2233,213.25554899647742
5265,126184.88369386265
2,5,10, 5, 0,17, 0.00,60.00,Friday
2232,165.75515908955675
2233,101.96731309574658
5265,116957.94573003894
2,5,10, 5, 0,18, 0.00,60.00,Friday
2232,18.117427575469646
2233,10.979189359457088
5265,55629.600793639904
2,5,10, 5, 0,19, 0.00,60.00,Friday
2232,0.0
2233,0.0
5265,29410.674113013
2,5,10, 5, 0,20, 0.00,60.00,Friday
2232,0.0
2233,0.0
5265,18541.491253276505
2,5,10, 5, 0,21, 0.00,60.00,Friday
2232,0.0
2233,0.0
5265,13411.169614681488
2,5,10, 5, 0,22, 0.00,60.00,Friday
2232,0.0
2233,0.0
5265,8302.385256053747
2,5,10, 5, 0,23, 0.00,60.00,Friday
2232,0.0
2233,0.0
5265,8274.6610094604
2,5,10, 5, 0,24, 0.00,60.00,Friday
2232,0.0
2233,0.0
5265,8251.785744148436
2,6,10, 6, 0, 1, 0.00,60.00,Saturday
2232,0.0
2233,0.0
5265,8227.092290450148
2,6,10, 6, 0, 2, 0.00,60.00,Saturday
2232,0.0
2233,0.0
5265,8211.745087087356
2,6,10, 6, 0, 3, 0.00,60.00,Saturday
2232,0.0
2233,0.0
5265,8186.1763357901245
2,6,10, 6, 0, 4, 0.00,60.00,Saturday
2232,0.0
2233,0.0
5265,8165.1273473812025
2,6,10, 6, 0, 5, 0.00,60.00,Saturday
2232,0.0
2233,0.0
5265,8148.091930887143
2,6,10, 6, 0, 6, 0.00,60.00,Saturday
2232,26.56549722870676
2233,16.858208990887439
5265,8123.044671147877
2,6,10, 6, 0, 7, 0.00,60.00,Saturday
2232,163.0109855462068
2233,103.8457653394856
5265,8088.073747255706
2,6,10, 6, 0, 8, 0.00,60.00,Saturday
2232,336.3461181018724
2233,209.69452165387347
5265,8084.534057445607
2,6,10, 6, 0, 9, 0.00,60.00,Saturday
2232,511.69103436694379
2233,321.47637793209767
5265,42017.617610649235
2,6,10, 6, 0,10, 0.00,60.00,Saturday
2232,552.7078734564134
2233,355.22735279055368
5265,62863.03457220164
2,6,10, 6, 0,11, 0.00,60.00,Saturday
2232,512.2725488227904
2233,338.3768753978491
5265,77315.49049848529
2,6,10, 6, 0,12, 0.00,60.00,Saturday
2232,492.1565156295644
2233,329.346666744524
5265,71461.19539885178
2,6,10, 6, 0,13, 0.00,60.00,Saturday
2232,479.84059491078508
2233,316.9536007636007
5265,60027.249158196
2,6,10, 6, 0,14, 0.00,60.00,Saturday
2232,461.48122783081029
2233,296.7110726447666
5265,52716.39150605052
2,6,10, 6, 0,15, 0.00,60.00,Saturday
2232,413.3214339947185
2233,259.8736589707941
5265,52901.90953420754
2,6,10, 6, 0,16, 0.00,60.00,Saturday
2232,305.028620615953
2233,190.19652386410147
5265,47742.450718410284
2,6,10, 6, 0,17, 0.00,60.00,Saturday
2232,154.3468983650673
2233,95.59458147225938
5265,39062.84939258679
2,6,10, 6, 0,18, 0.00,60.00,Saturday
2232,15.815790648438244
2233,9.650864619801782
5265,35196.17321883032
2,6,10, 6, 0,19, 0.00,60.00,Saturday
2232,0.0
2233,0.0
5265,28437.524266959594
2,6,10, 6, 0,20, 0.00,60.00,Saturday
2232,0.0
2233,0.0
5265,11550.653583167235
2,6,10, 6, 0,21, 0.00,60.00,Saturday
2232,0.0
2233,0.0
5265,11437.326617759098
2,6,10, 6, 0,22, 0.00,60.00,Saturday
2232,0.0
2233,0.0
5265,8659.929748262692
2,6,10, 6, 0,23, 0.00,60.00,Saturday
2232,0.0
2233,0.0
5265,8333.537838187729
2,6,10, 6, 0,24, 0.00,60.00,Saturday
2232,0.0
2233,0.0
5265,8163.660278728296
2,7,10, 7, 0, 1, 0.00,60.00,Sunday
2232,0.0
2233,0.0
5265,8111.202482247805
2,7,10, 7, 0, 2, 0.00,60.00,Sunday
2232,0.0
2233,0.0
5265,8090.155648342062
2,7,10, 7, 0, 3, 0.00,60.00,Sunday
2232,0.0
2233,0.0
5265,8062.37310243419
2,7,10, 7, 0, 4, 0.00,60.00,Sunday
2232,0.0
2233,0.0
5265,8018.734225066746
2,7,10, 7, 0, 5, 0.00,60.00,Sunday
2232,0.0
2233,0.0
5265,7971.564423304116
2,7,10, 7, 0, 6, 0.00,60.00,Sunday
2232,27.19301703602253
2233,17.257585486166865
5265,7952.251588246166
2,7,10, 7, 0, 7, 0.00,60.00,Sunday
2232,172.32564008326549
2233,109.75296482138295
5265,7997.518313342406
2,7,10, 7, 0, 8, 0.00,60.00,Sunday
2232,366.76650431283789
2233,228.8091590352698
5265,8085.846554862585
2,7,10, 7, 0, 9, 0.00,60.00,Sunday
2232,487.80453369839548
2233,306.5573269260711
5265,8193.984124693228
2,7,10, 7, 0,10, 0.00,60.00,Sunday
2232,510.4883932698087
2233,328.1290916947995
5265,8297.56981592204
2,7,10, 7, 0,11, 0.00,60.00,Sunday
2232,482.5415471917084
2233,318.0902063431368
5265,8360.658693805277
2,7,10, 7, 0,12, 0.00,60.00,Sunday
2232,449.89050111932905
2233,299.6267497669017
5265,8362.419651984199
2,7,10, 7, 0,13, 0.00,60.00,Sunday
2232,438.5106743239592
2233,289.05846859162349
5265,8302.59724577555
2,7,10, 7, 0,14, 0.00,60.00,Sunday
2232,421.2954666219548
2233,270.99169239434607
5265,8241.296296139868
2,7,10, 7, 0,15, 0.00,60.00,Sunday
2232,392.5943327583156
2233,247.1160792274511
5265,8225.907498645138
2,7,10, 7, 0,16, 0.00,60.00,Sunday
2232,293.2317481537752
2233,183.17653082294263
5265,8280.416538718475
2,7,10, 7, 0,17, 0.00,60.00,Sunday
2232,148.25100192891487
2233,92.10176970643933
5265,8343.284995973807
2,7,10, 7, 0,18, 0.00,60.00,Sunday
2232,15.229778078780209
2233,9.3375599898495
5265,8378.32262599058
2,7,10, 7, 0,19, 0.00,60.00,Sunday
2232,0.0
2233,0.0
5265,8344.888557940634
2,7,10, 7, 0,20, 0.00,60.00,Sunday
2232,0.0
2233,0.0
5265,8290.82378337969
2,7,10, 7, 0,21, 0.00,60.00,Sunday
2232,0.0
2233,0.0
5265,8239.39428167459
2,7,10, 7, 0,22, 0.00,60.00,Sunday
2232,0.0
2233,0.0
5265,8180.910664430896
2,7,10, 7, 0,23, 0.00,60.00,Sunday
2232,0.0
2233,0.0
5265,8115.165312058459
2,7,10, 7, 0,24, 0.00,60.00,Sunday
2232,0.0
2233,0.0
5265,8071.751144707306
2,8,10, 8, 0, 1, 0.00,60.00,Monday
2232,0.0
2233,0.0
5265,7698.376667773341
2,8,10, 8, 0, 2, 0.00,60.00,Monday
2232,0.0
2233,0.0
5265,7742.621717960744
2,8,10, 8, 0, 3, 0.00,60.00,Monday
2232,0.0
2233,0.0
5265,7689.925948879467
2,8,10, 8, 0, 4, 0.00,60.00,Monday
2232,0.0
2233,0.0
5265,7615.853338119475
2,8,10, 8, 0, 5, 0.00,60.00,Monday
2232,0.0
2233,0.0
5265,7548.412174881789
2,8,10, 8, 0, 6, 0.00,60.00,Monday
2232,28.91604573951183
2233,18.303528635512305
5265,7495.091409304536
2,8,10, 8, 0, 7, 0.00,60.00,Monday
2232,174.71832472260955
2233,111.31821446664583
5265,7471.492238146036
2,8,10, 8, 0, 8, 0.00,60.00,Monday
2232,343.43008338755245
2233,214.29860688526279
5265,29274.053845859173
2,8,10, 8, 0, 9, 0.00,60.00,Monday
2232,478.01065647736416
2233,300.5024913529508
5265,60329.55862856596
2,8,10, 8, 0,10, 0.00,60.00,Monday
2232,512.5978971726527
2233,329.4900475871512
5265,88209.76860122707
2,8,10, 8, 0,11, 0.00,60.00,Monday
2232,491.4053640840016
2233,324.136970913466
5265,90382.80833215238
2,8,10, 8, 0,12, 0.00,60.00,Monday
2232,453.5028666363448
2233,302.1212331601559
5265,129638.87493534725
2,8,10, 8, 0,13, 0.00,60.00,Monday
2232,418.38906855843376
2233,275.85405194779966
5265,132296.78843596718
2,8,10, 8, 0,14, 0.00,60.00,Monday
2232,364.6425476283386
2233,235.63815215170636
5265,165472.909355166
2,8,10, 8, 0,15, 0.00,60.00,Monday
2232,302.4697972627671
2233,191.85343174471675
5265,174776.83976231016
2,8,10, 8, 0,16, 0.00,60.00,Monday
2232,212.45353531674827
2233,133.84764857400914
5265,156130.41335377153
2,8,10, 8, 0,17, 0.00,60.00,Monday
2232,101.12581281899844
2233,64.32402008102231
5265,135066.12095610635
2,8,10, 8, 0,18, 0.00,60.00,Monday
2232,10.50055550705421
2233,6.650662290032021
5265,52367.77156877942
2,8,10, 8, 0,19, 0.00,60.00,Monday
2232,0.0
2233,0.0
5265,25739.4679833514
2,8,10, 8, 0,20, 0.00,60.00,Monday
2232,0.0
2233,0.0
5265,10855.946360711298
2,8,10, 8, 0,21, 0.00,60.00,Monday
2232,0.0
2233,0.0
5265,8427.067171104942
2,8,10, 8, 0,22, 0.00,60.00,Monday
2232,0.0
2233,0.0
5265,7978.519323328625
2,8,10, 8, 0,23, 0.00,60.00,Monday
2232,0.0
2233,0.0
5265,7942.427727076604
2,8,10, 8, 0,24, 0.00,60.00,Monday
2232,0.0
2233,0.0
5265,7914.250342202453
2,9,10, 9, 0, 1, 0.00,60.00,Tuesday
2232,0.0
2233,0.0
5265,7118.495555056973
2,9,10, 9, 0, 2, 0.00,60.00,Tuesday
2232,0.0
2233,0.0
5265,7207.281565435503
2,9,10, 9, 0, 3, 0.00,60.00,Tuesday
2232,0.0
2233,0.0
5265,7154.349535514295
2,9,10, 9, 0, 4, 0.00,60.00,Tuesday
2232,0.0
2233,0.0
5265,7080.629733334416
2,9,10, 9, 0, 5, 0.00,60.00,Tuesday
2232,0.0
2233,0.0
5265,7002.569997388203
2,9,10, 9, 0, 6, 0.00,60.00,Tuesday
2232,53.97742423792486
2233,29.922229979154037
5265,7130.039205391812
2,9,10, 9, 0, 7, 0.00,60.00,Tuesday
2232,315.020465074871
2233,190.74318174487198
5265,7518.739944541361
2,9,10, 9, 0, 8, 0.00,60.00,Tuesday
2232,563.7000856344932
2233,341.36339841376238
5265,20821.88286234628
2,9,10, 9, 0, 9, 0.00,60.00,Tuesday
2232,676.2016892073669
2233,416.59465739643999
5265,73580.27454968059
2,9,10, 9, 0,10, 0.00,60.00,Tuesday
2232,646.6407099052363
2233,409.8865381909254
5265,105802.16524354521
2,9,10, 9, 0,11, 0.00,60.00,Tuesday
2232,548.6410736858564
2233,360.44222562630667
5265,114569.86337199506
2,9,10, 9, 0,12, 0.00,60.00,Tuesday
2232,489.50388516850719
2233,328.1787255816955
5265,152515.74335141525
2,9,10, 9, 0,13, 0.00,60.00,Tuesday
2232,509.2729050593745
2233,335.42299751543677
5265,144409.74563089107
2,9,10, 9, 0,14, 0.00,60.00,Tuesday
2232,535.9903840997491
2233,340.81176219462057
5265,168095.51463243963
2,9,10, 9, 0,15, 0.00,60.00,Tuesday
2232,466.1031772041876
2233,288.54089689659107
5265,147038.68868657424
2,9,10, 9, 0,16, 0.00,60.00,Tuesday
2232,310.1205173467639
2233,192.47950544828849
5265,149418.42702746197
2,9,10, 9, 0,17, 0.00,60.00,Tuesday
2232,125.68283790601184
2233,79.10306416642837
5265,125277.24251466495
2,9,10, 9, 0,18, 0.00,60.00,Tuesday
2232,11.896987787538157
2233,7.461380401942283
5265,111272.44913226261
2,9,10, 9, 0,19, 0.00,60.00,Tuesday
2232,0.0
2233,0.0
5265,66334.83006347544
2,9,10, 9, 0,20, 0.00,60.00,Tuesday
2232,0.0
2233,0.0
5265,32261.00407953699
2,9,10, 9, 0,21, 0.00,60.00,Tuesday
2232,0.0
2233,0.0
5265,8657.365337249343
2,9,10, 9, 0,22, 0.00,60.00,Tuesday
2232,0.0
2233,0.0
5265,8393.891789855055
2,9,10, 9, 0,23, 0.00,60.00,Tuesday
2232,0.0
2233,0.0
5265,8303.11011072275
2,9,10, 9, 0,24, 0.00,60.00,Tuesday
2232,0.0
2233,0.0
5265,8257.114984990514
2,10,10,10, 0, 1, 0.00,60.00,Wednesday
2232,0.0
2233,0.0
5265,8227.520130876934
2,10,10,10, 0, 2, 0.00,60.00,Wednesday
2232,0.0
2233,0.0
5265,8202.301203417288
2,10,10,10, 0, 3, 0.00,60.00,Wednesday
2232,0.0
2233,0.0
5265,8173.120012358976
2,10,10,10, 0, 4, 0.00,60.00,Wednesday
2232,0.0
2233,0.0
5265,8123.695856437897
2,10,10,10, 0, 5, 0.00,60.00,Wednesday
2232,0.0
2233,0.0
5265,8004.223856137913
2,10,10,10, 0, 6, 0.00,60.00,Wednesday
2232,29.87259266246979
2233,18.86814582292556
5265,8025.32163806337
2,10,10,10, 0, 7, 0.00,60.00,Wednesday
2232,177.4172480958824
2233,112.89861376009681
5265,8193.973597584341
2,10,10,10, 0, 8, 0.00,60.00,Wednesday
2232,337.13332457653146
2233,210.11537273000645
5265,25395.92305440037
2,10,10,10, 0, 9, 0.00,60.00,Wednesday
2232,511.47154801519499
2233,321.24397885374858
5265,80937.03948565091
2,10,10,10, 0,10, 0.00,60.00,Wednesday
2232,549.5083635914361
2233,353.13384125488599
5265,113535.66595216735
2,10,10,10, 0,11, 0.00,60.00,Wednesday
2232,502.56152062086047
2233,332.13799814066786
5265,135568.48255048824
2,10,10,10, 0,12, 0.00,60.00,Wednesday
2232,421.55077995603127
2233,283.6865028020677
5265,171797.0015835306
2,10,10,10, 0,13, 0.00,60.00,Wednesday
2232,478.88254199094737
2233,315.31461582289566
5265,172075.3852376791
2,10,10,10, 0,14, 0.00,60.00,Wednesday
2232,526.6110200156053
2233,334.5393325914373
5265,172349.08140390129
2,10,10,10, 0,15, 0.00,60.00,Wednesday
2232,507.8885155621562
2233,313.64905990908786
5265,178722.44441488773
2,10,10,10, 0,16, 0.00,60.00,Wednesday
2232,391.2262781665438
2233,238.06966870742463
5265,144704.32387494669
2,10,10,10, 0,17, 0.00,60.00,Wednesday
2232,200.85897251245138
2233,120.80908360544511
5265,83126.94133805315
2,10,10,10, 0,18, 0.00,60.00,Wednesday
2232,21.17121476860615
2233,12.364728167231235
5265,52928.220861403686
2,10,10,10, 0,19, 0.00,60.00,Wednesday
2232,0.0
2233,0.0
5265,23332.621091336565
2,10,10,10, 0,20, 0.00,60.00,Wednesday
2232,0.0
2233,0.0
5265,9363.135168454479
2,10,10,10, 0,21, 0.00,60.00,Wednesday
2232,0.0
2233,0.0
5265,8906.097268901556
2,10,10,10, 0,22, 0.00,60.00,Wednesday
2232,0.0
2233,0.0
5265,8461.424292333237
2,10,10,10, 0,23, 0.00,60.00,Wednesday
2232,0.0
2233,0.0
5265,8429.75455117574
2,10,10,10, 0,24, 0.00,60.00,Wednesday
2232,0.0
2233,0.0
5265,8392.421807566958
2,11,10,11, 0, 1, 0.00,60.00,Thursday
2232,0.0
2233,0.0
5265,8341.804300886108
2,11,10,11, 0, 2, 0.00,60.00,Thursday
2232,0.0
2233,0.0
5265,8281.248006173311
2,11,10,11, 0, 3, 0.00,60.00,Thursday
2232,0.0
2233,0.0
5265,8241.326451603132
2,11,10,11, 0, 4, 0.00,60.00,Thursday
2232,0.0
2233,0.0
5265,8214.779396360484
2,11,10,11, 0, 5, 0.00,60.00,Thursday
2232,0.0
2233,0.0
5265,8188.431172257285
2,11,10,11, 0, 6, 0.00,60.00,Thursday
2232,33.31307446036601
2233,20.871889973352883
5265,8210.104326549166
2,11,10,11, 0, 7, 0.00,60.00,Thursday
2232,201.1376924080157
2233,127.667408962251
5265,8316.259039214901
2,11,10,11, 0, 8, 0.00,60.00,Thursday
2232,381.0302349135866
2233,237.58879631424353
5265,23841.304298915366
2,11,10,11, 0, 9, 0.00,60.00,Thursday
2232,492.5768202377324
2233,309.4373027216523
5265,114294.39010982959
2,11,10,11, 0,10, 0.00,60.00,Thursday
2232,513.4472221354985
2233,329.95568016730297
5265,148732.71421859673
2,11,10,11, 0,11, 0.00,60.00,Thursday
2232,493.28899118420926
2233,325.27081389512815
5265,167397.05805223264
2,11,10,11, 0,12, 0.00,60.00,Thursday
2232,480.2174580847803
2233,320.6133741084638
5265,169387.46940710888
2,11,10,11, 0,13, 0.00,60.00,Thursday
2232,478.06914691307846
2233,315.84689918313958
5265,172179.06898911837
2,11,10,11, 0,14, 0.00,60.00,Thursday
2232,473.3160954705683
2233,303.878337065779
5265,184378.43612080735
2,11,10,11, 0,15, 0.00,60.00,Thursday
2232,423.27502655987265
2233,266.0428503023414
5265,180287.19520647356
2,11,10,11, 0,16, 0.00,60.00,Thursday
2232,302.75161729078806
2233,188.3818944469372
5265,181889.17237612629
2,11,10,11, 0,17, 0.00,60.00,Thursday
2232,145.1227362903974
2233,89.90902626140569
5265,168316.49390294867
2,11,10,11, 0,18, 0.00,60.00,Thursday
2232,14.810424915995469
2233,9.06123496659724
5265,88468.09575751437
2,11,10,11, 0,19, 0.00,60.00,Thursday
2232,0.0
2233,0.0
5265,63635.61657467206
2,11,10,11, 0,20, 0.00,60.00,Thursday
2232,0.0
2233,0.0
5265,45701.25363686597
2,11,10,11, 0,21, 0.00,60.00,Thursday
2232,0.0
2233,0.0
5265,8466.666047906043
2,11,10,11, 0,22, 0.00,60.00,Thursday
2232,0.0
2233,0.0
5265,8421.903071748247
2,11,10,11, 0,23, 0.00,60.00,Thursday
2232,0.0
2233,0.0
5265,8379.96448065601
2,11,10,11, 0,24, 0.00,60.00,Thursday
2232,0.0
2233,0.0
5265,8333.445606882622
2,12,10,12, 0, 1, 0.00,60.00,Friday
2232,0.0
2233,0.0
5265,8261.998467784719
2,12,10,12, 0, 2, 0.00,60.00,Friday
2232,0.0
2233,0.0
5265,8183.592451689925
2,12,10,12, 0, 3, 0.00,60.00,Friday
2232,0.0
2233,0.0
5265,8149.8225089277
2,12,10,12, 0, 4, 0.00,60.00,Friday
2232,0.0
2233,0.0
5265,8186.35427347048
2,12,10,12, 0, 5, 0.00,60.00,Friday
2232,0.0
2233,0.0
5265,8223.872679040307
2,12,10,12, 0, 6, 0.00,60.00,Friday
2232,31.743963945776217
2233,19.97339889898429
5265,8258.686432764758
2,12,10,12, 0, 7, 0.00,60.00,Friday
2232,197.05262720376224
2233,125.09455992447825
5265,8329.008309524916
2,12,10,12, 0, 8, 0.00,60.00,Friday
2232,388.77082848601096
2233,242.53179102095784
5265,29218.277632498546
2,12,10,12, 0, 9, 0.00,60.00,Friday
2232,506.69470514928636
2233,318.2182494894069
5265,91784.92754309079
2,12,10,12, 0,10, 0.00,60.00,Friday
2232,525.7554565555623
2233,337.77938453511407
5265,150581.45620920845
2,12,10,12, 0,11, 0.00,60.00,Friday
2232,497.33731506248997
2233,328.06884946726299
5265,148979.12796781734
2,12,10,12, 0,12, 0.00,60.00,Friday
2232,472.07411192984099
2233,314.9485983168449
5265,151816.20811391003
2,12,10,12, 0,13, 0.00,60.00,Friday
2232,459.6992159109897
2233,303.2758546706612
5265,161173.2083014819
2,12,10,12, 0,14, 0.00,60.00,Friday
2232,447.9792403389044
2233,288.06540024738765
5265,168559.49395646447
2,12,10,12, 0,15, 0.00,60.00,Friday
2232,400.4338139793402
2233,251.84963150665485
5265,148748.75703896106
2,12,10,12, 0,16, 0.00,60.00,Friday
2232,291.4673198104694
2233,181.9314304912431
5265,131572.9648168677
2,12,10,12, 0,17, 0.00,60.00,Friday
2232,136.50347039317999
2233,85.00722393214889
5265,122015.85385035417
2,12,10,12, 0,18, 0.00,60.00,Friday
2232,13.605516985004395
2233,8.384262086056774
5265,56021.64856766024
2,12,10,12, 0,19, 0.00,60.00,Friday
2232,0.0
2233,0.0
5265,29686.72647204244
2,12,10,12, 0,20, 0.00,60.00,Friday
2232,0.0
2233,0.0
5265,18672.198826466443
2,12,10,12, 0,21, 0.00,60.00,Friday
2232,0.0
2233,0.0
5265,13465.181014624715
2,12,10,12, 0,22, 0.00,60.00,Friday
2232,0.0
2233,0.0
5265,8281.713703951324
2,12,10,12, 0,23, 0.00,60.00,Friday
2232,0.0
2233,0.0
5265,8184.047521500495
2,12,10,12, 0,24, 0.00,60.00,Friday
2232,0.0
2233,0.0
5265,8116.356621736838
2,13,10,13, 0, 1, 0.00,60.00,Saturday
2232,0.0
2233,0.0
5265,8106.180895712106
2,13,10,13, 0, 2, 0.00,60.00,Saturday
2232,0.0
2233,0.0
5265,8109.302913806266
2,13,10,13, 0, 3, 0.00,60.00,Saturday
2232,0.0
2233,0.0
5265,8112.384528282621
2,13,10,13, 0, 4, 0.00,60.00,Saturday
2232,0.0
2233,0.0
5265,8106.488888246743
2,13,10,13, 0, 5, 0.00,60.00,Saturday
2232,0.0
2233,0.0
5265,8100.743542255955
2,13,10,13, 0, 6, 0.00,60.00,Saturday
2232,33.26005558940556
2233,20.84369886835498
5265,8130.514315456966
2,13,10,13, 0, 7, 0.00,60.00,Saturday
2232,200.5727280687678
2233,127.3332129334878
5265,8239.375064396074
2,13,10,13, 0, 8, 0.00,60.00,Saturday
2232,381.25006620762226
2233,237.7583285171826
5265,8384.500569184725
2,13,10,13, 0, 9, 0.00,60.00,Saturday
2232,504.93757676717248
2233,317.1221041575236
5265,58306.22498839366
2,13,10,13, 0,10, 0.00,60.00,Saturday
2232,529.3830601263563
2233,340.0962748272195
5265,82807.54528308769
2,13,10,13, 0,11, 0.00,60.00,Saturday
2232,500.6146071888979
2233,330.30741222144868
5265,93784.4908512116
2,13,10,13, 0,12, 0.00,60.00,Saturday
2232,477.3240368685785
2233,318.7952425195471
5265,84307.9190016538
2,13,10,13, 0,13, 0.00,60.00,Saturday
2232,470.6078311843187
2233,310.77118615557125
5265,63975.160739196384
2,13,10,13, 0,14, 0.00,60.00,Saturday
2232,465.730557885945
2233,299.48593337995046
5265,57377.87405625854
2,13,10,13, 0,15, 0.00,60.00,Saturday
2232,415.2060650431247
2233,260.99642309476919
5265,57454.42608125165
2,13,10,13, 0,16, 0.00,60.00,Saturday
2232,301.8488077411452
2233,187.6124420035037
5265,51700.89549890637
2,13,10,13, 0,17, 0.00,60.00,Saturday
2232,140.75804079638056
2233,87.30294460329863
5265,42132.832363907524
2,13,10,13, 0,18, 0.00,60.00,Saturday
2232,14.009056817606151
2233,8.577549555048926
5265,36011.12878871522
2,13,10,13, 0,19, 0.00,60.00,Saturday
2232,0.0
2233,0.0
5265,28637.980488356585
2,13,10,13, 0,20, 0.00,60.00,Saturday
2232,0.0
2233,0.0
5265,12608.786766737308
2,13,10,13, 0,21, 0.00,60.00,Saturday
2232,0.0
2233,0.0
5265,12456.051674440028
2,13,10,13, 0,22, 0.00,60.00,Saturday
2232,0.0
2233,0.0
5265,8686.196754520204
2,13,10,13, 0,23, 0.00,60.00,Saturday
2232,0.0
2233,0.0
5265,8439.505433815648
2,13,10,13, 0,24, 0.00,60.00,Saturday
2232,0.0
2233,0.0