Program Version,EnergyPlus, Version 8.7.0-78a111df4a, YMD=2019.12.26 10:18
1,5,Environment Title[],Latitude[deg],Longitude[deg],Time Zone[],Elevation[m]
2,6,Day of Simulation[],Month[],Day of Month[],DST Indicator[1=yes 0=no],Hour[],StartMinute[],EndMinute[],DayType
3,3,Cumulative Day of Simulation[],Month[],Day of Month[],DST Indicator[1=yes 0=no],DayType  ! When Daily Report Variables Requested
4,2,Cumulative Days of Simulation[],Month[]  ! When Monthly Report Variables Requested
5,1,Cumulative Days of Simulation[] ! When Run Period Report Variables Requested
2232,1,AF305DAYLIGHINGCONTROL,Daylighting Reference Point 1 Illuminance [lux] !Hourly
2233,1,AF305DAYLIGHINGCONTROL,Daylighting Reference Point 2 Illuminance [lux] !Hourly
5265,1,Whole Building,Facility Total Electric Demand Power [W] !Hourly
End of Data Dictionary
1,RUNPERIOD,  10.30, 123.97,   8.00,  24.00
2,1,10, 1, 0, 1, 0.00,60.00,Monday
2232,0.0
2233,0.0
5265,7959.2340340260525
2,1,10, 1, 0, 2, 0.00,60.00,Monday
2232,0.0
2233,0.0
5265,7873.480624506763
2,1,10, 1, 0, 3, 0.00,60.00,Monday
2232,0.0
2233,0.0
5265,7736.39281216278
2,1,10, 1, 0, 4, 0.00,60.00,Monday
2232,0.0
2233,0.0
5265,7669.686931190198
2,1,10, 1, 0, 5, 0.00,60.00,Monday
2232,0.0
2233,0.0
5265,7605.573975803229
2,1,10, 1, 0, 6, 0.00,60.00,Monday
2232,58.996630600467707
2233,30.255272910054186
5265,7665.214675931843
2,1,10, 1, 0, 7, 0.00,60.00,Monday
2232,308.035315605088
2233,179.80996686271735
5265,7801.817526176565
2,1,10, 1, 0, 8, 0.00,60.00,Monday
2232,494.16827232774838
2233,294.13460478987659
5265,29701.938650045155
2,1,10, 1, 0, 9, 0.00,60.00,Monday
2232,574.4635588997829
2233,350.76235466646338
5265,61848.50338016476
2,1,10, 1, 0,10, 0.00,60.00,Monday
2232,547.404271727123
2233,344.94754234512745
5265,96199.4211061483
2,1,10, 1, 0,11, 0.00,60.00,Monday
2232,461.90897779374139
2233,301.8871051436317
5265,97931.51885578752
2,1,10, 1, 0,12, 0.00,60.00,Monday
2232,379.6858041837176
2233,253.77972487069358
5265,141604.59820598065
2,1,10, 1, 0,13, 0.00,60.00,Monday
2232,392.60843208920218
2233,258.1782204833852
5265,145039.4042143056
2,1,10, 1, 0,14, 0.00,60.00,Monday
2232,390.2135761670309
2233,249.54432294929709
5265,170319.78647607968
2,1,10, 1, 0,15, 0.00,60.00,Monday
2232,313.7824532976153
2233,196.4510304508594
5265,177555.71170813536
2,1,10, 1, 0,16, 0.00,60.00,Monday
2232,206.01265866107029
2233,128.47505379131429
5265,158697.68371688625
2,1,10, 1, 0,17, 0.00,60.00,Monday
2232,82.05692403191783
2233,51.97536467792742
5265,137192.77380015577
2,1,10, 1, 0,18, 0.00,60.00,Monday
2232,9.310771380617544
2233,5.8997174137566159
5265,52784.818975842885
2,1,10, 1, 0,19, 0.00,60.00,Monday
2232,0.0
2233,0.0
5265,25999.083045837124
2,1,10, 1, 0,20, 0.00,60.00,Monday
2232,0.0
2233,0.0
5265,10994.476428200645
2,1,10, 1, 0,21, 0.00,60.00,Monday
2232,0.0
2233,0.0
5265,8577.795462242471
2,1,10, 1, 0,22, 0.00,60.00,Monday
2232,0.0
2233,0.0
5265,8150.562530488366
2,1,10, 1, 0,23, 0.00,60.00,Monday
2232,0.0
2233,0.0
5265,8136.888514586783
2,1,10, 1, 0,24, 0.00,60.00,Monday
2232,0.0
2233,0.0
5265,8119.398837225795
2,2,10, 2, 0, 1, 0.00,60.00,Tuesday
2232,0.0
2233,0.0
5265,7867.88330061716
2,2,10, 2, 0, 2, 0.00,60.00,Tuesday
2232,0.0
2233,0.0
5265,7777.1476081734
2,2,10, 2, 0, 3, 0.00,60.00,Tuesday
2232,0.0
2233,0.0
5265,7667.301407217766
2,2,10, 2, 0, 4, 0.00,60.00,Tuesday
2232,0.0
2233,0.0
5265,7551.190045651364
2,2,10, 2, 0, 5, 0.00,60.00,Tuesday
2232,0.0
2233,0.0
5265,7424.286700321288
2,2,10, 2, 0, 6, 0.00,60.00,Tuesday
2232,60.49010684975252
2233,30.84725169687277
5265,7536.338552744021
2,2,10, 2, 0, 7, 0.00,60.00,Tuesday
2232,319.11772579082398
2233,184.46528779582688
5265,7972.732579801817
2,2,10, 2, 0, 8, 0.00,60.00,Tuesday
2232,518.5956317020087
2233,305.22295850198068
5265,21084.495961413428
2,2,10, 2, 0, 9, 0.00,60.00,Tuesday
2232,592.9906909323676
2233,360.9172945551499
5265,82346.46017097096
2,2,10, 2, 0,10, 0.00,60.00,Tuesday
2232,558.2393679999109
2233,351.2880092673402
5265,115205.90929378009
2,2,10, 2, 0,11, 0.00,60.00,Tuesday
2232,448.20353853658249
2233,292.94669171819859
5265,120925.85725725773
2,2,10, 2, 0,12, 0.00,60.00,Tuesday
2232,393.1465406608614
2233,262.21280946766088
5265,151738.6328218753
2,2,10, 2, 0,13, 0.00,60.00,Tuesday
2232,392.9683945503264
2233,257.92073886862939
5265,136588.60570392037
2,2,10, 2, 0,14, 0.00,60.00,Tuesday
2232,343.6069028423933
2233,220.01010407966298
5265,154141.4796466276
2,2,10, 2, 0,15, 0.00,60.00,Tuesday
2232,292.6876232379655
2233,183.6072853212406
5265,130313.27310140715
2,2,10, 2, 0,16, 0.00,60.00,Tuesday
2232,206.7820227621598
2233,128.90724740066839
5265,135051.86132021555
2,2,10, 2, 0,17, 0.00,60.00,Tuesday
2232,103.60099313158537
2233,65.30143559843612
5265,110847.06050792294
2,2,10, 2, 0,18, 0.00,60.00,Tuesday
2232,11.743459725439115
2233,7.369609395513465
5265,109441.19910545259
2,2,10, 2, 0,19, 0.00,60.00,Tuesday
2232,0.0
2233,0.0
5265,64249.07299808992
2,2,10, 2, 0,20, 0.00,60.00,Tuesday
2232,0.0
2233,0.0
5265,31286.681564760223
2,2,10, 2, 0,21, 0.00,60.00,Tuesday
2232,0.0
2233,0.0
5265,8632.09762611168
2,2,10, 2, 0,22, 0.00,60.00,Tuesday
2232,0.0
2233,0.0
5265,8386.152243243805
2,2,10, 2, 0,23, 0.00,60.00,Tuesday
2232,0.0
2233,0.0
5265,8335.026467204432
2,2,10, 2, 0,24, 0.00,60.00,Tuesday
2232,0.0
2233,0.0
5265,8295.401821224472
2,3,10, 3, 0, 1, 0.00,60.00,Wednesday
2232,0.0
2233,0.0
5265,8218.903132084177
2,3,10, 3, 0, 2, 0.00,60.00,Wednesday
2232,0.0
2233,0.0
5265,8121.950194455774
2,3,10, 3, 0, 3, 0.00,60.00,Wednesday
2232,0.0
2233,0.0
5265,7992.122818873356
2,3,10, 3, 0, 4, 0.00,60.00,Wednesday
2232,0.0
2233,0.0
5265,7928.509336255766
2,3,10, 3, 0, 5, 0.00,60.00,Wednesday
2232,0.0
2233,0.0
5265,7856.33672454124
2,3,10, 3, 0, 6, 0.00,60.00,Wednesday
2232,24.65745127244216
2233,15.504636048368582
5265,7897.641580376349
2,3,10, 3, 0, 7, 0.00,60.00,Wednesday
2232,152.64711163009077
2233,96.58923680965545
5265,8081.325108747825
2,3,10, 3, 0, 8, 0.00,60.00,Wednesday
2232,317.6099857889062
2233,196.94071955724125
5265,25186.20994524461
2,3,10, 3, 0, 9, 0.00,60.00,Wednesday
2232,448.7965197492186
2233,280.21471676800658
5265,75691.05439934705
2,3,10, 3, 0,10, 0.00,60.00,Wednesday
2232,468.68758717752146
2233,299.4098748873874
5265,112756.83673532901
2,3,10, 3, 0,11, 0.00,60.00,Wednesday
2232,435.3863137010171
2233,285.8192671418305
5265,133384.7950868719
2,3,10, 3, 0,12, 0.00,60.00,Wednesday
2232,395.70914782181378
2233,262.3707967144018
5265,164777.6926580811
2,3,10, 3, 0,13, 0.00,60.00,Wednesday
2232,354.91512758889237
2233,232.73413690609628
5265,155796.17790812409
2,3,10, 3, 0,14, 0.00,60.00,Wednesday
2232,318.1084370788264
2233,204.25848809664798
5265,152865.20237996189
2,3,10, 3, 0,15, 0.00,60.00,Wednesday
2232,303.1484863948679
2233,189.9994971303087
5265,158308.407822009
2,3,10, 3, 0,16, 0.00,60.00,Wednesday
2232,245.75350984294287
2233,152.77000984944608
5265,123409.38186705993
2,3,10, 3, 0,17, 0.00,60.00,Wednesday
2232,130.38172563272958
2233,80.59706861645012
5265,68402.49240324398
2,3,10, 3, 0,18, 0.00,60.00,Wednesday
2232,15.76225798110186
2233,9.568996343114563
5265,52188.31736217005
2,3,10, 3, 0,19, 0.00,60.00,Wednesday
2232,0.0
2233,0.0
5265,22663.04861548352
2,3,10, 3, 0,20, 0.00,60.00,Wednesday
2232,0.0
2233,0.0
5265,9042.397569858804
2,3,10, 3, 0,21, 0.00,60.00,Wednesday
2232,0.0
2233,0.0
5265,8519.656976130174
2,3,10, 3, 0,22, 0.00,60.00,Wednesday
2232,0.0
2233,0.0
5265,8099.8497191630195
2,3,10, 3, 0,23, 0.00,60.00,Wednesday
2232,0.0
2233,0.0
5265,8126.1669229825975
2,3,10, 3, 0,24, 0.00,60.00,Wednesday
2232,0.0
2233,0.0
5265,8123.567146775113
2,4,10, 4, 0, 1, 0.00,60.00,Thursday
2232,0.0
2233,0.0
5265,8059.445665957645
2,4,10, 4, 0, 2, 0.00,60.00,Thursday
2232,0.0
2233,0.0
5265,7984.257691591555
2,4,10, 4, 0, 3, 0.00,60.00,Thursday
2232,0.0
2233,0.0
5265,7923.5749176475265
2,4,10, 4, 0, 4, 0.00,60.00,Thursday
2232,0.0
2233,0.0
5265,7908.460090768509
2,4,10, 4, 0, 5, 0.00,60.00,Thursday
2232,0.0
2233,0.0
5265,7906.542687718092
2,4,10, 4, 0, 6, 0.00,60.00,Thursday
2232,30.41738212111427
2233,18.813913971511608
5265,7928.626864506714
2,4,10, 4, 0, 7, 0.00,60.00,Thursday
2232,188.67202328468555
2233,118.92985389042394
5265,8000.300629276187
2,4,10, 4, 0, 8, 0.00,60.00,Thursday
2232,374.10074997361149
2233,230.7528171083852
5265,22699.031137020433
2,4,10, 4, 0, 9, 0.00,60.00,Thursday
2232,462.6720632608562
2233,288.6657725360024
5265,96257.91241464978
2,4,10, 4, 0,10, 0.00,60.00,Thursday
2232,468.0139700256227
2233,299.0679991666482
5265,132089.24011030093
2,4,10, 4, 0,11, 0.00,60.00,Thursday
2232,433.4395121805628
2233,284.56622026871306
5265,157431.61746292434
2,4,10, 4, 0,12, 0.00,60.00,Thursday
2232,408.5448518309716
2233,271.31283216291197
5265,161777.51493185306
2,4,10, 4, 0,13, 0.00,60.00,Thursday
2232,398.7247104577209
2233,261.6788271527375
5265,164405.51673091143
2,4,10, 4, 0,14, 0.00,60.00,Thursday
2232,388.0679365554404
2233,248.0555678293573
5265,176301.92105801966
2,4,10, 4, 0,15, 0.00,60.00,Thursday
2232,362.084656997879
2233,226.19915615864364
5265,165850.3763181376
2,4,10, 4, 0,16, 0.00,60.00,Thursday
2232,274.57247526789299
2233,169.1838089556502
5265,172087.54407643205
2,4,10, 4, 0,17, 0.00,60.00,Thursday
2232,141.50411243414428
2233,86.61890853287059
5265,160268.97059719734
2,4,10, 4, 0,18, 0.00,60.00,Thursday
2232,18.65195584691853
2233,11.163946392711493
5265,87294.9234797348
2,4,10, 4, 0,19, 0.00,60.00,Thursday
2232,0.0
2233,0.0
5265,62345.287996808205
2,4,10, 4, 0,20, 0.00,60.00,Thursday
2232,0.0
2233,0.0
5265,44474.35702236674
2,4,10, 4, 0,21, 0.00,60.00,Thursday
2232,0.0
2233,0.0
5265,8248.84657985771
2,4,10, 4, 0,22, 0.00,60.00,Thursday
2232,0.0
2233,0.0
5265,8236.80356546019
2,4,10, 4, 0,23, 0.00,60.00,Thursday
2232,0.0
2233,0.0
5265,8234.014732438978
2,4,10, 4, 0,24, 0.00,60.00,Thursday
2232,0.0
2233,0.0
5265,8190.4897343301345
2,5,10, 5, 0, 1, 0.00,60.00,Friday
2232,0.0
2233,0.0
5265,8093.750169465643
2,5,10, 5, 0, 2, 0.00,60.00,Friday
2232,0.0
2233,0.0
5265,7994.786715674317
2,5,10, 5, 0, 3, 0.00,60.00,Friday
2232,0.0
2233,0.0
5265,7930.291689937293
2,5,10, 5, 0, 4, 0.00,60.00,Friday
2232,0.0
2233,0.0
5265,7913.813525734309
2,5,10, 5, 0, 5, 0.00,60.00,Friday
2232,0.0
2233,0.0
5265,7905.567625255771
2,5,10, 5, 0, 6, 0.00,60.00,Friday
2232,45.55753500719275
2233,25.098701112643786
5265,7921.5474519447935
2,5,10, 5, 0, 7, 0.00,60.00,Friday
2232,253.5332935605993
2233,153.97102061459629
5265,7979.774875078184
2,5,10, 5, 0, 8, 0.00,60.00,Friday
2232,404.172752106696
2233,247.86248373691775
5265,28011.262216850588
2,5,10, 5, 0, 9, 0.00,60.00,Friday
2232,476.83638339468936
2233,296.3284987920243
5265,70132.30282244759
2,5,10, 5, 0,10, 0.00,60.00,Friday
2232,461.97314971136935
2233,295.1577555048521
5265,137496.24180194635
2,5,10, 5, 0,11, 0.00,60.00,Friday
2232,426.5005913536491
2233,279.99115549342175
5265,136026.0033845743
2,5,10, 5, 0,12, 0.00,60.00,Friday
2232,387.8349644197372
2233,258.8321607192585
5265,142402.1523569268
2,5,10, 5, 0,13, 0.00,60.00,Friday
2232,406.1025168923625
2233,265.89058152495047
5265,156211.40937801582
2,5,10, 5, 0,14, 0.00,60.00,Friday
2232,455.8750668283796
2233,287.94616387761649
5265,166530.41294917759
2,5,10, 5, 0,15, 0.00,60.00,Friday
2232,432.4459584364552
2233,265.4280870251724
5265,145061.415940472
2,5,10, 5, 0,16, 0.00,60.00,Friday
2232,294.3994078220667
2233,179.20616436986897
5265,126184.88369386265
2,5,10, 5, 0,17, 0.00,60.00,Friday
2232,140.21784442083348
2233,85.73292355715084
5265,116957.94573003894
2,5,10, 5, 0,18, 0.00,60.00,Friday
2232,15.330769964557325
2233,9.233713866083845
5265,55629.600793639904
2,5,10, 5, 0,19, 0.00,60.00,Friday
2232,0.0
2233,0.0
5265,29410.674113013
2,5,10, 5, 0,20, 0.00,60.00,Friday
2232,0.0
2233,0.0
5265,18541.491253276505
2,5,10, 5, 0,21, 0.00,60.00,Friday
2232,0.0
2233,0.0
5265,13411.169614681488
2,5,10, 5, 0,22, 0.00,60.00,Friday
2232,0.0
2233,0.0
5265,8302.385256053747
2,5,10, 5, 0,23, 0.00,60.00,Friday
2232,0.0
2233,0.0
5265,8274.6610094604
2,5,10, 5, 0,24, 0.00,60.00,Friday
2232,0.0
2233,0.0
5265,8251.785744148436
2,6,10, 6, 0, 1, 0.00,60.00,Saturday
2232,0.0
2233,0.0
5265,8227.092290450148
2,6,10, 6, 0, 2, 0.00,60.00,Saturday
2232,0.0
2233,0.0
5265,8211.745087087356
2,6,10, 6, 0, 3, 0.00,60.00,Saturday
2232,0.0
2233,0.0
5265,8186.1763357901245
2,6,10, 6, 0, 4, 0.00,60.00,Saturday
2232,0.0
2233,0.0
5265,8165.1273473812025
2,6,10, 6, 0, 5, 0.00,60.00,Saturday
2232,0.0
2233,0.0
5265,8148.091930887143
2,6,10, 6, 0, 6, 0.00,60.00,Saturday
2232,22.472617787497815
2233,14.180460852947819
5265,8123.044671147877
2,6,10, 6, 0, 7, 0.00,60.00,Saturday
2232,137.8813449590405
2233,87.34144978132086
5265,8088.073747255706
2,6,10, 6, 0, 8, 0.00,60.00,Saturday
2232,284.51821603503
2233,176.33380857186308
5265,8084.534057445607
2,6,10, 6, 0, 9, 0.00,60.00,Saturday
2232,432.7170886277881
2233,270.240170300493
5265,42017.617610649235
2,6,10, 6, 0,10, 0.00,60.00,Saturday
2232,467.22358867833358
2233,298.53823461412028
5265,62863.03457220164
2,6,10, 6, 0,11, 0.00,60.00,Saturday
2232,432.8310190244763
2233,284.290664724245
5265,77315.49049848529
2,6,10, 6, 0,12, 0.00,60.00,Saturday
2232,415.7759922433051
2233,276.699767713494
5265,71461.19539885178
2,6,10, 6, 0,13, 0.00,60.00,Saturday
2232,405.4205728574421
2233,266.2816723145568
5265,60027.249158196
2,6,10, 6, 0,14, 0.00,60.00,Saturday
2232,390.0346699643839
2233,249.29212616461079
5265,52716.39150605052
2,6,10, 6, 0,15, 0.00,60.00,Saturday
2232,349.43900028267509
2233,218.37015319588714
5265,52901.90953420754
2,6,10, 6, 0,16, 0.00,60.00,Saturday
2232,257.9489776832192
2233,159.86279080882103
5265,47742.450718410284
2,6,10, 6, 0,17, 0.00,60.00,Saturday
2232,130.56249648575759
2233,80.3776696606865
5265,39062.84939258679
2,6,10, 6, 0,18, 0.00,60.00,Saturday
2232,13.382463563232497
2233,8.116656763625603
5265,35196.17321883032
2,6,10, 6, 0,19, 0.00,60.00,Saturday
2232,0.0
2233,0.0
5265,28437.524266959594
2,6,10, 6, 0,20, 0.00,60.00,Saturday
2232,0.0
2233,0.0
5265,11550.653583167235
2,6,10, 6, 0,21, 0.00,60.00,Saturday
2232,0.0
2233,0.0
5265,11437.326617759098
2,6,10, 6, 0,22, 0.00,60.00,Saturday
2232,0.0
2233,0.0
5265,8659.929748262692
2,6,10, 6, 0,23, 0.00,60.00,Saturday
2232,0.0
2233,0.0
5265,8333.537838187729
2,6,10, 6, 0,24, 0.00,60.00,Saturday
2232,0.0
2233,0.0
5265,8163.660278728296
2,7,10, 7, 0, 1, 0.00,60.00,Sunday
2232,0.0
2233,0.0
5265,8111.202482247805
2,7,10, 7, 0, 2, 0.00,60.00,Sunday
2232,0.0
2233,0.0
5265,8090.155648342062
2,7,10, 7, 0, 3, 0.00,60.00,Sunday
2232,0.0
2233,0.0
5265,8062.37310243419
2,7,10, 7, 0, 4, 0.00,60.00,Sunday
2232,0.0
2233,0.0
5265,8018.734225066746
2,7,10, 7, 0, 5, 0.00,60.00,Sunday
2232,0.0
2233,0.0
5265,7971.564423304116
2,7,10, 7, 0, 6, 0.00,60.00,Sunday
2232,23.00335002137831
2233,14.516344235201684
5265,7952.251588246166
2,7,10, 7, 0, 7, 0.00,60.00,Sunday
2232,145.76104374865077
2233,92.31080199810056
5265,7997.518313342406
2,7,10, 7, 0, 8, 0.00,60.00,Sunday
2232,310.25376285326839
2233,192.41269746052226
5265,8085.846554862585
2,7,10, 7, 0, 9, 0.00,60.00,Sunday
2232,412.52798298755166
2233,257.7099252847228
5265,8193.984124693228
2,7,10, 7, 0,10, 0.00,60.00,Sunday
2232,431.56836274619305
2233,275.7967659902543
5265,8297.56981592204
2,7,10, 7, 0,11, 0.00,60.00,Sunday
2232,407.80419181600129
2233,267.3244973494483
5265,8360.658693805277
2,7,10, 7, 0,12, 0.00,60.00,Sunday
2232,380.15530884479309
2233,251.79244789182415
5265,8362.419651984199
2,7,10, 7, 0,13, 0.00,60.00,Sunday
2232,370.55521342546145
2233,242.88945358131216
5265,8302.59724577555
2,7,10, 7, 0,14, 0.00,60.00,Sunday
2232,356.092823729391
2233,227.7052917516412
5265,8241.296296139868
2,7,10, 7, 0,15, 0.00,60.00,Sunday
2232,331.9217617870086
2233,207.65922994807318
5265,8225.907498645138
2,7,10, 7, 0,16, 0.00,60.00,Sunday
2232,247.97231107973372
2233,153.96577865588834
5265,8280.416538718475
2,7,10, 7, 0,17, 0.00,60.00,Sunday
2232,125.4033084711315
2233,77.44155589867931
5265,8343.284995973807
2,7,10, 7, 0,18, 0.00,60.00,Sunday
2232,12.886205437825069
2233,7.85326304358345
5265,8378.32262599058
2,7,10, 7, 0,19, 0.00,60.00,Sunday
2232,0.0
2233,0.0
5265,8344.888557940634
2,7,10, 7, 0,20, 0.00,60.00,Sunday
2232,0.0
2233,0.0
5265,8290.82378337969
2,7,10, 7, 0,21, 0.00,60.00,Sunday
2232,0.0
2233,0.0
5265,8239.39428167459
2,7,10, 7, 0,22, 0.00,60.00,Sunday
2232,0.0
2233,0.0
5265,8180.910664430896
2,7,10, 7, 0,23, 0.00,60.00,Sunday
2232,0.0
2233,0.0
5265,8115.165312058459
2,7,10, 7, 0,24, 0.00,60.00,Sunday
2232,0.0
2233,0.0
5265,8071.751144707306
2,8,10, 8, 0, 1, 0.00,60.00,Monday
2232,0.0
2233,0.0
5265,7698.376667773341
2,8,10, 8, 0, 2, 0.00,60.00,Monday
2232,0.0
2233,0.0
5265,7742.621717960744
2,8,10, 8, 0, 3, 0.00,60.00,Monday
2232,0.0
2233,0.0
5265,7689.925948879467
2,8,10, 8, 0, 4, 0.00,60.00,Monday
2232,0.0
2233,0.0
5265,7615.853338119475
2,8,10, 8, 0, 5, 0.00,60.00,Monday
2232,0.0
2233,0.0
5265,7548.412174881789
2,8,10, 8, 0, 6, 0.00,60.00,Monday
2232,24.46163659493823
2233,15.396348995199722
5265,7495.091409304536
2,8,10, 8, 0, 7, 0.00,60.00,Monday
2232,147.78365627084663
2233,93.62680764310632
5265,7471.492238146036
2,8,10, 8, 0, 8, 0.00,60.00,Monday
2232,290.51310708907399
2233,180.21043032757459
5265,29274.053845859173
2,8,10, 8, 0, 9, 0.00,60.00,Monday
2232,404.2456098982196
2233,252.62113289225872
5265,60329.55862856596
2,8,10, 8, 0,10, 0.00,60.00,Monday
2232,433.34644263601538
2233,276.9358290530255
5265,88209.76860122707
2,8,10, 8, 0,11, 0.00,60.00,Monday
2232,415.2772559491766
2233,272.3921672214419
5265,90382.80833215238
2,8,10, 8, 0,12, 0.00,60.00,Monday
2232,383.20464819815455
2233,253.88686107665289
5265,129638.87493534725
2,8,10, 8, 0,13, 0.00,60.00,Monday
2232,353.577200659282
2233,231.81809297194708
5265,132296.78843596718
2,8,10, 8, 0,14, 0.00,60.00,Monday
2232,308.23246462044696
2233,198.03457229146728
5265,165472.909355166
2,8,10, 8, 0,15, 0.00,60.00,Monday
2232,255.73987232488325
2233,161.2514211285077
5265,174776.83976231016
2,8,10, 8, 0,16, 0.00,60.00,Monday
2232,179.6667431867701
2233,112.52096593769989
5265,156130.41335377153
2,8,10, 8, 0,17, 0.00,60.00,Monday
2232,85.52731970045075
2233,54.089531721297429
5265,135066.12095610635
2,8,10, 8, 0,18, 0.00,60.00,Monday
2232,8.882097017746938
2233,5.593351960505515
5265,52367.77156877942
2,8,10, 8, 0,19, 0.00,60.00,Monday
2232,0.0
2233,0.0
5265,25739.4679833514
2,8,10, 8, 0,20, 0.00,60.00,Monday
2232,0.0
2233,0.0
5265,10855.946360711298
2,8,10, 8, 0,21, 0.00,60.00,Monday
2232,0.0
2233,0.0
5265,8427.067171104942
2,8,10, 8, 0,22, 0.00,60.00,Monday
2232,0.0
2233,0.0
5265,7978.519323328625
2,8,10, 8, 0,23, 0.00,60.00,Monday
2232,0.0
2233,0.0
5265,7942.427727076604
2,8,10, 8, 0,24, 0.00,60.00,Monday
2232,0.0
2233,0.0
5265,7914.250342202453
2,9,10, 9, 0, 1, 0.00,60.00,Tuesday
2232,0.0
2233,0.0
5265,7118.495555056973
2,9,10, 9, 0, 2, 0.00,60.00,Tuesday
2232,0.0
2233,0.0
5265,7207.281565435503
2,9,10, 9, 0, 3, 0.00,60.00,Tuesday
2232,0.0
2233,0.0
5265,7154.349535514295
2,9,10, 9, 0, 4, 0.00,60.00,Tuesday
2232,0.0
2233,0.0
5265,7080.629733334416
2,9,10, 9, 0, 5, 0.00,60.00,Tuesday
2232,0.0
2233,0.0
5265,7002.569997388203
2,9,10, 9, 0, 6, 0.00,60.00,Tuesday
2232,45.686717462092648
2233,25.143630218515417
5265,7130.039205391812
2,9,10, 9, 0, 7, 0.00,60.00,Tuesday
2232,266.5191904423272
2233,160.3765468391259
5265,7518.739944541361
2,9,10, 9, 0, 8, 0.00,60.00,Tuesday
2232,476.91111595860078
2233,287.01484882865716
5265,20821.88286234628
2,9,10, 9, 0, 9, 0.00,60.00,Tuesday
2232,571.8294572780354
2233,350.09924192513628
5265,73580.27454968059
2,9,10, 9, 0,10, 0.00,60.00,Tuesday
2232,546.6040136723421
2233,344.3897437169722
5265,105802.16524354521
2,9,10, 9, 0,11, 0.00,60.00,Tuesday
2232,463.49347602078645
2233,302.7513253058219
5265,114569.86337199506
2,9,10, 9, 0,12, 0.00,60.00,Tuesday
2232,413.36217241298666
2233,275.5750638839529
5265,152515.74335141525
2,9,10, 9, 0,13, 0.00,60.00,Tuesday
2232,430.15405979201258
2233,281.67085072498039
5265,144409.74563089107
2,9,10, 9, 0,14, 0.00,60.00,Tuesday
2232,452.93554081988648
2233,286.2370255205633
5265,168095.51463243963
2,9,10, 9, 0,15, 0.00,60.00,Tuesday
2232,394.0316007451249
2233,242.37676791006266
5265,147038.68868657424
2,9,10, 9, 0,16, 0.00,60.00,Tuesday
2232,262.2536857350579
2233,161.769986945016
5265,149418.42702746197
2,9,10, 9, 0,17, 0.00,60.00,Tuesday
2232,106.30283112506895
2233,66.51364284385835
5265,125277.24251466495
2,9,10, 9, 0,18, 0.00,60.00,Tuesday
2232,10.064275921030996
2233,6.275289635212951
5265,111272.44913226261
2,9,10, 9, 0,19, 0.00,60.00,Tuesday
2232,0.0
2233,0.0
5265,66334.83006347544
2,9,10, 9, 0,20, 0.00,60.00,Tuesday
2232,0.0
2233,0.0
5265,32261.00407953699
2,9,10, 9, 0,21, 0.00,60.00,Tuesday
2232,0.0
2233,0.0
5265,8657.365337249343
2,9,10, 9, 0,22, 0.00,60.00,Tuesday
2232,0.0
2233,0.0
5265,8393.891789855055
2,9,10, 9, 0,23, 0.00,60.00,Tuesday
2232,0.0
2233,0.0
5265,8303.11011072275
2,9,10, 9, 0,24, 0.00,60.00,Tuesday
2232,0.0
2233,0.0
5265,8257.114984990514
2,10,10,10, 0, 1, 0.00,60.00,Wednesday
2232,0.0
2233,0.0
5265,8227.520130876934
2,10,10,10, 0, 2, 0.00,60.00,Wednesday
2232,0.0
2233,0.0
5265,8202.301203417288
2,10,10,10, 0, 3, 0.00,60.00,Wednesday
2232,0.0
2233,0.0
5265,8173.120012358976
2,10,10,10, 0, 4, 0.00,60.00,Wednesday
2232,0.0
2233,0.0
5265,8123.695856437897
2,10,10,10, 0, 5, 0.00,60.00,Wednesday
2232,0.0
2233,0.0
5265,8004.223856137913
2,10,10,10, 0, 6, 0.00,60.00,Wednesday
2232,25.271542560865567
2233,15.871510884725176
5265,8025.32163806337
2,10,10,10, 0, 7, 0.00,60.00,Wednesday
2232,150.06832306224445
2233,94.9561318238536
5265,8193.973597584341
2,10,10,10, 0, 8, 0.00,60.00,Wednesday
2232,285.1866264744054
2233,176.6893177685497
5265,25395.92305440037
2,10,10,10, 0, 9, 0.00,60.00,Wednesday
2232,432.53537616698949
2233,270.0473601876633
5265,80937.03948565091
2,10,10,10, 0,10, 0.00,60.00,Wednesday
2232,464.52458475302509
2233,296.78363241186386
5265,113535.66595216735
2,10,10,10, 0,11, 0.00,60.00,Wednesday
2232,424.610286281294
2233,279.03690394265467
5265,135568.48255048824
2,10,10,10, 0,12, 0.00,60.00,Wednesday
2232,355.9261657025654
2233,238.17415617344626
5265,171797.0015835306
2,10,10,10, 0,13, 0.00,60.00,Wednesday
2232,404.44537382222299
2233,264.7432944728918
5265,172075.3852376791
2,10,10,10, 0,14, 0.00,60.00,Wednesday
2232,445.0023832043059
2233,280.95681976884449
5265,172349.08140390129
2,10,10,10, 0,15, 0.00,60.00,Wednesday
2232,429.373297300162
2233,263.4765682917961
5265,178722.44441488773
2,10,10,10, 0,16, 0.00,60.00,Wednesday
2232,330.8745073123276
2233,200.06365802454148
5265,144704.32387494669
2,10,10,10, 0,17, 0.00,60.00,Wednesday
2232,169.9429667018667
2233,101.57210749730835
5265,83126.94133805315
2,10,10,10, 0,18, 0.00,60.00,Wednesday
2232,17.91924236487386
2233,10.397987726228762
5265,52928.220861403686
2,10,10,10, 0,19, 0.00,60.00,Wednesday
2232,0.0
2233,0.0
5265,23332.621091336565
2,10,10,10, 0,20, 0.00,60.00,Wednesday
2232,0.0
2233,0.0
5265,9363.135168454479
2,10,10,10, 0,21, 0.00,60.00,Wednesday
2232,0.0
2233,0.0
5265,8906.097268901556
2,10,10,10, 0,22, 0.00,60.00,Wednesday
2232,0.0
2233,0.0
5265,8461.424292333237
2,10,10,10, 0,23, 0.00,60.00,Wednesday
2232,0.0
2233,0.0
5265,8429.75455117574
2,10,10,10, 0,24, 0.00,60.00,Wednesday
2232,0.0
2233,0.0
5265,8392.421807566958
2,11,10,11, 0, 1, 0.00,60.00,Thursday
2232,0.0
2233,0.0
5265,8341.804300886108
2,11,10,11, 0, 2, 0.00,60.00,Thursday
2232,0.0
2233,0.0
5265,8281.248006173311
2,11,10,11, 0, 3, 0.00,60.00,Thursday
2232,0.0
2233,0.0
5265,8241.326451603132
2,11,10,11, 0, 4, 0.00,60.00,Thursday
2232,0.0
2233,0.0
5265,8214.779396360484
2,11,10,11, 0, 5, 0.00,60.00,Thursday
2232,0.0
2233,0.0
5265,8188.431172257285
2,11,10,11, 0, 6, 0.00,60.00,Thursday
2232,28.18361500674054
2233,17.556581199001149
5265,8210.104326549166
2,11,10,11, 0, 7, 0.00,60.00,Thursday
2232,170.13764916352609
2233,107.37992780914857
5265,8316.259039214901
2,11,10,11, 0, 8, 0.00,60.00,Thursday
2232,322.3221153553696
2233,199.79694663121067
5265,23841.304298915366
2,11,10,11, 0, 9, 0.00,60.00,Thursday
2232,416.5670009289902
2233,260.1326054271051
5265,114294.39010982959
2,11,10,11, 0,10, 0.00,60.00,Thursday
2232,434.0724768301802
2233,277.3337193199629
5265,148732.71421859673
2,11,10,11, 0,11, 0.00,60.00,Thursday
2232,416.87654678100986
2233,273.3506609914273
5265,167397.05805223264
2,11,10,11, 0,12, 0.00,60.00,Thursday
2232,405.72955315270107
2233,269.3902537394818
5265,169387.46940710888
2,11,10,11, 0,13, 0.00,60.00,Thursday
2232,403.9161506302085
2233,265.34549596855416
5265,172179.06898911837
2,11,10,11, 0,14, 0.00,60.00,Thursday
2232,399.9966603108597
2233,255.2709003285797
5265,184378.43612080735
2,11,10,11, 0,15, 0.00,60.00,Thursday
2232,357.83880258143338
2233,223.53859595928439
5265,180287.19520647356
2,11,10,11, 0,16, 0.00,60.00,Thursday
2232,256.0236519704947
2233,158.3331560436587
5265,181889.17237612629
2,11,10,11, 0,17, 0.00,60.00,Thursday
2232,122.75976005555902
2233,75.59744759810352
5265,168316.49390294867
2,11,10,11, 0,18, 0.00,60.00,Thursday
2232,12.53158610545035
2233,7.620841335051483
5265,88468.09575751437
2,11,10,11, 0,19, 0.00,60.00,Thursday
2232,0.0
2233,0.0
5265,63635.61657467206
2,11,10,11, 0,20, 0.00,60.00,Thursday
2232,0.0
2233,0.0
5265,45701.25363686597
2,11,10,11, 0,21, 0.00,60.00,Thursday
2232,0.0
2233,0.0
5265,8466.666047906043
2,11,10,11, 0,22, 0.00,60.00,Thursday
2232,0.0
2233,0.0
5265,8421.903071748247
2,11,10,11, 0,23, 0.00,60.00,Thursday
2232,0.0
2233,0.0
5265,8379.96448065601
2,11,10,11, 0,24, 0.00,60.00,Thursday
2232,0.0
2233,0.0
5265,8333.445606882622
2,12,10,12, 0, 1, 0.00,60.00,Friday
2232,0.0
2233,0.0
5265,8261.998467784719
2,12,10,12, 0, 2, 0.00,60.00,Friday
2232,0.0
2233,0.0
5265,8183.592451689925
2,12,10,12, 0, 3, 0.00,60.00,Friday
2232,0.0
2233,0.0
5265,8149.8225089277
2,12,10,12, 0, 4, 0.00,60.00,Friday
2232,0.0
2233,0.0
5265,8186.35427347048
2,12,10,12, 0, 5, 0.00,60.00,Friday
2232,0.0
2233,0.0
5265,8223.872679040307
2,12,10,12, 0, 6, 0.00,60.00,Friday
2232,26.855501486519747
2233,16.801178842047177
5265,8258.686432764758
2,12,10,12, 0, 7, 0.00,60.00,Friday
2232,166.68239186969834
2233,105.21629970928872
5265,8329.008309524916
2,12,10,12, 0, 8, 0.00,60.00,Friday
2232,328.86789897845378
2233,203.95336850685917
5265,29218.277632498546
2,12,10,12, 0, 9, 0.00,60.00,Friday
2232,428.4990239814468
2233,267.50662932538656
5265,91784.92754309079
2,12,10,12, 0,10, 0.00,60.00,Friday
2232,444.4665430744469
2233,283.8981158413185
5265,150581.45620920845
2,12,10,12, 0,11, 0.00,60.00,Friday
2232,420.2842703630151
2233,275.69116680026
5265,148979.12796781734
2,12,10,12, 0,12, 0.00,60.00,Friday
2232,398.8656852229662
2233,264.6427988648823
5265,151816.20811391003
2,12,10,12, 0,13, 0.00,60.00,Friday
2232,388.4364579179393
2233,254.81704124269178
5265,161173.2083014819
2,12,10,12, 0,14, 0.00,60.00,Friday
2232,378.62879589491629
2233,242.033914260026
5265,168559.49395646447
2,12,10,12, 0,15, 0.00,60.00,Friday
2232,338.5444841061593
2233,211.62969206859195
5265,148748.75703896106
2,12,10,12, 0,16, 0.00,60.00,Friday
2232,246.47991199356307
2233,152.9172694239555
5265,131572.9648168677
2,12,10,12, 0,17, 0.00,60.00,Friday
2232,115.46447316764777
2233,71.47688788017106
5265,122015.85385035417
2,12,10,12, 0,18, 0.00,60.00,Friday
2232,11.511465251779262
2233,7.051570903582402
5265,56021.64856766024
2,12,10,12, 0,19, 0.00,60.00,Friday
2232,0.0
2233,0.0
5265,29686.72647204244
2,12,10,12, 0,20, 0.00,60.00,Friday
2232,0.0
2233,0.0
5265,18672.198826466443
2,12,10,12, 0,21, 0.00,60.00,Friday
2232,0.0
2233,0.0
5265,13465.181014624715
2,12,10,12, 0,22, 0.00,60.00,Friday
2232,0.0
2233,0.0
5265,8281.713703951324
2,12,10,12, 0,23, 0.00,60.00,Friday
2232,0.0
2233,0.0
5265,8184.047521500495
2,12,10,12, 0,24, 0.00,60.00,Friday
2232,0.0
2233,0.0
5265,8116.356621736838
2,13,10,13, 0, 1, 0.00,60.00,Saturday
2232,0.0
2233,0.0
5265,8106.180895712106
2,13,10,13, 0, 2, 0.00,60.00,Saturday
2232,0.0
2233,0.0
5265,8109.302913806266
2,13,10,13, 0, 3, 0.00,60.00,Saturday
2232,0.0
2233,0.0
5265,8112.384528282621
2,13,10,13, 0, 4, 0.00,60.00,Saturday
2232,0.0
2233,0.0
5265,8106.488888246743
2,13,10,13, 0, 5, 0.00,60.00,Saturday
2232,0.0
2233,0.0
5265,8100.743542255955
2,13,10,13, 0, 6, 0.00,60.00,Saturday
2232,28.138665393130244
2233,17.532838275357734
5265,8130.514315456966
2,13,10,13, 0, 7, 0.00,60.00,Saturday
2232,169.6593908220585
2233,107.09879361961116
5265,8239.375064396074
2,13,10,13, 0, 8, 0.00,60.00,Saturday
2232,322.50693488857908
2233,199.93886831501187
5265,8384.500569184725
2,13,10,13, 0, 9, 0.00,60.00,Saturday
2232,427.01398122403045
2233,266.5860929441524
5265,58306.22498839366
2,13,10,13, 0,10, 0.00,60.00,Saturday
2232,447.53073764625307
2233,285.84292416510518
5265,82807.54528308769
2,13,10,13, 0,11, 0.00,60.00,Saturday
2232,423.0463616691511
2233,277.5664101224352
5265,93784.4908512116
2,13,10,13, 0,12, 0.00,60.00,Saturday
2232,403.2795880216967
2233,267.85900068501078
5265,84307.9190016538
2,13,10,13, 0,13, 0.00,60.00,Saturday
2232,397.6242632924265
2233,261.0908001720118
5265,63975.160739196384
2,13,10,13, 0,14, 0.00,60.00,Saturday
2232,393.60737350127018
2233,251.60656002182749
5265,57377.87405625854
2,13,10,13, 0,15, 0.00,60.00,Saturday
2232,351.02221094176078
2233,219.30335059638959
5265,57454.42608125165
2,13,10,13, 0,16, 0.00,60.00,Saturday
2232,255.26074171649104
2233,157.68452146835748
5265,51700.89549890637
2,13,10,13, 0,17, 0.00,60.00,Saturday
2232,119.06658516609433
2233,73.40629951265363
5265,42132.832363907524
2,13,10,13, 0,18, 0.00,60.00,Saturday
2232,11.85346598147075
2233,7.21406288265623
5265,36011.12878871522
2,13,10,13, 0,19, 0.00,60.00,Saturday
2232,0.0
2233,0.0
5265,28637.980488356585
2,13,10,13, 0,20, 0.00,60.00,Saturday
2232,0.0
2233,0.0
5265,12608.786766737308
2,13,10,13, 0,21, 0.00,60.00,Saturday
2232,0.0
2233,0.0
5265,12456.051674440028
2,13,10,13, 0,22, 0.00,60.00,Saturday
2232,0.0
2233,0.0
5265,8686.196754520204
2,13,10,13, 0,23, 0.00,60.00,Saturday
2232,0.0
2233,0.0
5265,8439.505433815648
2,13,10,13, 0,24, 0.00,60.00,Saturday
2232,0.0
2233,0.0