Program Version,EnergyPlus, Version 8.7.0-78a111df4a, YMD=2019.12.26 10:13
1,5,Environment Title[],Latitude[deg],Longitude[deg],Time Zone[],Elevation[m]
2,6,Day of Simulation[],Month[],Day of Month[],DST Indicator[1=yes 0=no],Hour[],StartMinute[],EndMinute[],DayType
3,3,Cumulative Day of Simulation[],Month[],Day of Month[],DST Indicator[1=yes 0=no],DayType  ! When Daily Report Variables Requested
4,2,Cumulative Days of Simulation[],Month[]  ! When Monthly Report Variables Requested
5,1,Cumulative Days of Simulation[] ! When Run Period Report Variables Requested
2232,1,AF305DAYLIGHINGCONTROL,Daylighting Reference Point 1 Illuminance [lux] !Hourly
2233,1,AF305DAYLIGHINGCONTROL,Daylighting Reference Point 2 Illuminance [lux] !Hourly
5265,1,Whole Building,Facility Total Electric Demand Power [W] !Hourly
End of Data Dictionary
1,RUNPERIOD,  10.30, 123.97,   8.00,  24.00
2,1,10, 1, 0, 1, 0.00,60.00,Monday
2232,0.0
2233,0.0
5265,7959.2340340260525
2,1,10, 1, 0, 2, 0.00,60.00,Monday
2232,0.0
2233,0.0
5265,7873.480624506763
2,1,10, 1, 0, 3, 0.00,60.00,Monday
2232,0.0
2233,0.0
5265,7736.39281216278
2,1,10, 1, 0, 4, 0.00,60.00,Monday
2232,0.0
2233,0.0
5265,7669.686931190198
2,1,10, 1, 0, 5, 0.00,60.00,Monday
2232,0.0
2233,0.0
5265,7605.573975803229
2,1,10, 1, 0, 6, 0.00,60.00,Monday
2232,39.33108706697766
2233,20.170181940034977
5265,7665.214675931843
2,1,10, 1, 0, 7, 0.00,60.00,Monday
2232,205.35687707005074
2233,119.8733112418011
5265,7801.817526176565
2,1,10, 1, 0, 8, 0.00,60.00,Monday
2232,329.44551488516398
2233,196.08973652657753
5265,29701.938650045155
2,1,10, 1, 0, 9, 0.00,60.00,Monday
2232,382.9757059331891
2233,233.84156977763585
5265,61848.50338016476
2,1,10, 1, 0,10, 0.00,60.00,Monday
2232,364.9361811514148
2233,229.9650282300777
5265,96199.4211061483
2,1,10, 1, 0,11, 0.00,60.00,Monday
2232,307.93931852916009
2233,201.25807009574806
5265,97931.51885578752
2,1,10, 1, 0,12, 0.00,60.00,Monday
2232,253.1238694558108
2233,169.18648324712368
5265,141604.59820598065
2,1,10, 1, 0,13, 0.00,60.00,Monday
2232,261.73895472613438
2233,172.11881365558518
5265,145039.4042143056
2,1,10, 1, 0,14, 0.00,60.00,Monday
2232,260.14238411135389
2233,166.36288196619345
5265,170319.78647607968
2,1,10, 1, 0,15, 0.00,60.00,Monday
2232,209.18830219841019
2233,130.9673536339026
5265,177555.71170813536
2,1,10, 1, 0,16, 0.00,60.00,Monday
2232,137.34177244071356
2233,85.65003586087376
5265,158697.68371688625
2,1,10, 1, 0,17, 0.00,60.00,Monday
2232,54.70461602127861
2233,34.65024311861731
5265,137192.77380015577
2,1,10, 1, 0,18, 0.00,60.00,Monday
2232,6.207180920411701
2233,3.933144942504297
5265,52784.818975842885
2,1,10, 1, 0,19, 0.00,60.00,Monday
2232,0.0
2233,0.0
5265,25999.083045837124
2,1,10, 1, 0,20, 0.00,60.00,Monday
2232,0.0
2233,0.0
5265,10994.476428200645
2,1,10, 1, 0,21, 0.00,60.00,Monday
2232,0.0
2233,0.0
5265,8577.795462242471
2,1,10, 1, 0,22, 0.00,60.00,Monday
2232,0.0
2233,0.0
5265,8150.562530488366
2,1,10, 1, 0,23, 0.00,60.00,Monday
2232,0.0
2233,0.0
5265,8136.888514586783
2,1,10, 1, 0,24, 0.00,60.00,Monday
2232,0.0
2233,0.0
5265,8119.398837225795
2,2,10, 2, 0, 1, 0.00,60.00,Tuesday
2232,0.0
2233,0.0
5265,7867.88330061716
2,2,10, 2, 0, 2, 0.00,60.00,Tuesday
2232,0.0
2233,0.0
5265,7777.1476081734
2,2,10, 2, 0, 3, 0.00,60.00,Tuesday
2232,0.0
2233,0.0
5265,7667.301407217766
2,2,10, 2, 0, 4, 0.00,60.00,Tuesday
2232,0.0
2233,0.0
5265,7551.190045651364
2,2,10, 2, 0, 5, 0.00,60.00,Tuesday
2232,0.0
2233,0.0
5265,7424.286700321288
2,2,10, 2, 0, 6, 0.00,60.00,Tuesday
2232,40.32673789983422
2233,20.564834464580714
5265,7536.338552744021
2,2,10, 2, 0, 7, 0.00,60.00,Tuesday
2232,212.745150527208
2233,122.97685853054073
5265,7972.732579801817
2,2,10, 2, 0, 8, 0.00,60.00,Tuesday
2232,345.7304211346707
2233,203.4819723346466
5265,21084.495961413428
2,2,10, 2, 0, 9, 0.00,60.00,Tuesday
2232,395.32712728824546
2233,240.61152970342665
5265,82346.46017097096
2,2,10, 2, 0,10, 0.00,60.00,Tuesday
2232,372.15957866660667
2233,234.19200617821938
5265,115205.90929378009
2,2,10, 2, 0,11, 0.00,60.00,Tuesday
2232,298.8023590243876
2233,195.297794478793
5265,120925.85725725773
2,2,10, 2, 0,12, 0.00,60.00,Tuesday
2232,262.0976937739071
2233,174.80853964510218
5265,151738.6328218753
2,2,10, 2, 0,13, 0.00,60.00,Tuesday
2232,261.9789297002176
2233,171.94715924574818
5265,136588.60570392037
2,2,10, 2, 0,14, 0.00,60.00,Tuesday
2232,229.07126856159554
2233,146.67340271977128
5265,154141.4796466276
2,2,10, 2, 0,15, 0.00,60.00,Tuesday
2232,195.12508215864367
2233,122.40485688082366
5265,130313.27310140715
2,2,10, 2, 0,16, 0.00,60.00,Tuesday
2232,137.8546818414399
2233,85.93816493377649
5265,135051.86132021555
2,2,10, 2, 0,17, 0.00,60.00,Tuesday
2232,69.0673287543903
2233,43.534290398956169
5265,110847.06050792294
2,2,10, 2, 0,18, 0.00,60.00,Tuesday
2232,7.828973150292746
2233,4.913072930342164
5265,109441.19910545259
2,2,10, 2, 0,19, 0.00,60.00,Tuesday
2232,0.0
2233,0.0
5265,64249.07299808992
2,2,10, 2, 0,20, 0.00,60.00,Tuesday
2232,0.0
2233,0.0
5265,31286.681564760223
2,2,10, 2, 0,21, 0.00,60.00,Tuesday
2232,0.0
2233,0.0
5265,8632.09762611168
2,2,10, 2, 0,22, 0.00,60.00,Tuesday
2232,0.0
2233,0.0
5265,8386.152243243805
2,2,10, 2, 0,23, 0.00,60.00,Tuesday
2232,0.0
2233,0.0
5265,8335.026467204432
2,2,10, 2, 0,24, 0.00,60.00,Tuesday
2232,0.0
2233,0.0
5265,8295.401821224472
2,3,10, 3, 0, 1, 0.00,60.00,Wednesday
2232,0.0
2233,0.0
5265,8218.903132084177
2,3,10, 3, 0, 2, 0.00,60.00,Wednesday
2232,0.0
2233,0.0
5265,8121.950194455774
2,3,10, 3, 0, 3, 0.00,60.00,Wednesday
2232,0.0
2233,0.0
5265,7992.122818873356
2,3,10, 3, 0, 4, 0.00,60.00,Wednesday
2232,0.0
2233,0.0
5265,7928.509336255766
2,3,10, 3, 0, 5, 0.00,60.00,Wednesday
2232,0.0
2233,0.0
5265,7856.33672454124
2,3,10, 3, 0, 6, 0.00,60.00,Wednesday
2232,16.438300848294536
2233,10.33642403224516
5265,7897.641580376349
2,3,10, 3, 0, 7, 0.00,60.00,Wednesday
2232,101.7647410867255
2233,64.39282453976669
5265,8081.325108747825
2,3,10, 3, 0, 8, 0.00,60.00,Wednesday
2232,211.7399905259375
2233,131.29381303815689
5265,25186.20994524461
2,3,10, 3, 0, 9, 0.00,60.00,Wednesday
2232,299.1976798328129
2233,186.8098111786659
5265,75691.05439934705
2,3,10, 3, 0,10, 0.00,60.00,Wednesday
2232,312.45839145168108
2233,199.6065832582526
5265,112756.83673532901
2,3,10, 3, 0,11, 0.00,60.00,Wednesday
2232,290.25754246734467
2233,190.54617809454829
5265,133384.7950868719
2,3,10, 3, 0,12, 0.00,60.00,Wednesday
2232,263.8060985478758
2233,174.91386447626304
5265,164777.6926580811
2,3,10, 3, 0,13, 0.00,60.00,Wednesday
2232,236.6100850592617
2233,155.15609127072666
5265,155796.17790812409
2,3,10, 3, 0,14, 0.00,60.00,Wednesday
2232,212.07229138588435
2233,136.17232539776163
5265,152865.20237996189
2,3,10, 3, 0,15, 0.00,60.00,Wednesday
2232,202.098990929912
2233,126.6663314202023
5265,158308.407822009
2,3,10, 3, 0,16, 0.00,60.00,Wednesday
2232,163.83567322862857
2233,101.84667323296117
5265,123409.38186705993
2,3,10, 3, 0,17, 0.00,60.00,Wednesday
2232,86.92115042181969
2233,53.73137907763178
5265,68402.49240324398
2,3,10, 3, 0,18, 0.00,60.00,Wednesday
2232,10.508171987401225
2233,6.379330895409498
5265,52188.31736217005
2,3,10, 3, 0,19, 0.00,60.00,Wednesday
2232,0.0
2233,0.0
5265,22663.04861548352
2,3,10, 3, 0,20, 0.00,60.00,Wednesday
2232,0.0
2233,0.0
5265,9042.397569858804
2,3,10, 3, 0,21, 0.00,60.00,Wednesday
2232,0.0
2233,0.0
5265,8519.656976130174
2,3,10, 3, 0,22, 0.00,60.00,Wednesday
2232,0.0
2233,0.0
5265,8099.8497191630195
2,3,10, 3, 0,23, 0.00,60.00,Wednesday
2232,0.0
2233,0.0
5265,8126.1669229825975
2,3,10, 3, 0,24, 0.00,60.00,Wednesday
2232,0.0
2233,0.0
5265,8123.567146775113
2,4,10, 4, 0, 1, 0.00,60.00,Thursday
2232,0.0
2233,0.0
5265,8059.445665957645
2,4,10, 4, 0, 2, 0.00,60.00,Thursday
2232,0.0
2233,0.0
5265,7984.257691591555
2,4,10, 4, 0, 3, 0.00,60.00,Thursday
2232,0.0
2233,0.0
5265,7923.5749176475265
2,4,10, 4, 0, 4, 0.00,60.00,Thursday
2232,0.0
2233,0.0
5265,7908.460090768509
2,4,10, 4, 0, 5, 0.00,60.00,Thursday
2232,0.0
2233,0.0
5265,7906.542687718092
2,4,10, 4, 0, 6, 0.00,60.00,Thursday
2232,20.278254747409127
2233,12.542609314340306
5265,7928.626864506714
2,4,10, 4, 0, 7, 0.00,60.00,Thursday
2232,125.78134885645409
2233,79.2865692602774
5265,8000.300629276187
2,4,10, 4, 0, 8, 0.00,60.00,Thursday
2232,249.4004999824073
2233,153.83521140558518
5265,22699.031137020433
2,4,10, 4, 0, 9, 0.00,60.00,Thursday
2232,308.44804217390466
2233,192.44384835732977
5265,96257.91241464978
2,4,10, 4, 0,10, 0.00,60.00,Thursday
2232,312.0093133504153
2233,199.3786661110931
5265,132089.24011030093
2,4,10, 4, 0,11, 0.00,60.00,Thursday
2232,288.9596747870418
2233,189.71081351247003
5265,157431.61746292434
2,4,10, 4, 0,12, 0.00,60.00,Thursday
2232,272.363234553981
2233,180.8752214419363
5265,161777.51493185306
2,4,10, 4, 0,13, 0.00,60.00,Thursday
2232,265.81647363848057
2233,174.45255143515349
5265,164405.51673091143
2,4,10, 4, 0,14, 0.00,60.00,Thursday
2232,258.7119577036269
2233,165.3703785529003
5265,176301.92105801966
2,4,10, 4, 0,15, 0.00,60.00,Thursday
2232,241.38977133191919
2233,150.79943743909147
5265,165850.3763181376
2,4,10, 4, 0,16, 0.00,60.00,Thursday
2232,183.0483168452619
2233,112.7892059704302
5265,172087.54407643205
2,4,10, 4, 0,17, 0.00,60.00,Thursday
2232,94.33607495609611
2233,57.74593902191194
5265,160268.97059719734
2,4,10, 4, 0,18, 0.00,60.00,Thursday
2232,12.434637231278999
2233,7.442630928474075
5265,87294.9234797348
2,4,10, 4, 0,19, 0.00,60.00,Thursday
2232,0.0
2233,0.0
5265,62345.287996808205
2,4,10, 4, 0,20, 0.00,60.00,Thursday
2232,0.0
2233,0.0
5265,44474.35702236674
2,4,10, 4, 0,21, 0.00,60.00,Thursday
2232,0.0
2233,0.0
5265,8248.84657985771
2,4,10, 4, 0,22, 0.00,60.00,Thursday
2232,0.0
2233,0.0
5265,8236.80356546019
2,4,10, 4, 0,23, 0.00,60.00,Thursday
2232,0.0
2233,0.0
5265,8234.014732438978
2,4,10, 4, 0,24, 0.00,60.00,Thursday
2232,0.0
2233,0.0
5265,8190.4897343301345
2,5,10, 5, 0, 1, 0.00,60.00,Friday
2232,0.0
2233,0.0
5265,8093.750169465643
2,5,10, 5, 0, 2, 0.00,60.00,Friday
2232,0.0
2233,0.0
5265,7994.786715674317
2,5,10, 5, 0, 3, 0.00,60.00,Friday
2232,0.0
2233,0.0
5265,7930.291689937293
2,5,10, 5, 0, 4, 0.00,60.00,Friday
2232,0.0
2233,0.0
5265,7913.813525734309
2,5,10, 5, 0, 5, 0.00,60.00,Friday
2232,0.0
2233,0.0
5265,7905.567625255771
2,5,10, 5, 0, 6, 0.00,60.00,Friday
2232,30.371690004794613
2233,16.73246740842825
5265,7921.5474519447935
2,5,10, 5, 0, 7, 0.00,60.00,Friday
2232,169.02219570706132
2233,102.64734707638992
5265,7979.774875078184
2,5,10, 5, 0, 8, 0.00,60.00,Friday
2232,269.44850140446337
2233,165.24165582460629
5265,28011.262216850588
2,5,10, 5, 0, 9, 0.00,60.00,Friday
2232,317.8909222631268
2233,197.55233252801086
5265,70132.30282244759
2,5,10, 5, 0,10, 0.00,60.00,Friday
2232,307.9820998075797
2233,196.77183700322918
5265,137496.24180194635
2,5,10, 5, 0,11, 0.00,60.00,Friday
2232,284.3337275690995
2233,186.6607703289426
5265,136026.0033845743
2,5,10, 5, 0,12, 0.00,60.00,Friday
2232,258.5566429464911
2233,172.55477381283402
5265,142402.1523569268
2,5,10, 5, 0,13, 0.00,60.00,Friday
2232,270.73501126157415
2233,177.26038768329475
5265,156211.40937801582
2,5,10, 5, 0,14, 0.00,60.00,Friday
2232,303.9167112189189
2233,191.96410925173837
5265,166530.41294917759
2,5,10, 5, 0,15, 0.00,60.00,Friday
2232,288.29730562430299
2233,176.9520580167762
5265,145061.415940472
2,5,10, 5, 0,16, 0.00,60.00,Friday
2232,196.2662718813776
2233,119.47077624657578
5265,126184.88369386265
2,5,10, 5, 0,17, 0.00,60.00,Friday
2232,93.47856294722225
2233,57.1552823714321
5265,116957.94573003894
2,5,10, 5, 0,18, 0.00,60.00,Friday
2232,10.220513309704865
2233,6.155809244055689
5265,55629.600793639904
2,5,10, 5, 0,19, 0.00,60.00,Friday
2232,0.0
2233,0.0
5265,29410.674113013
2,5,10, 5, 0,20, 0.00,60.00,Friday
2232,0.0
2233,0.0
5265,18541.491253276505
2,5,10, 5, 0,21, 0.00,60.00,Friday
2232,0.0
2233,0.0
5265,13411.169614681488
2,5,10, 5, 0,22, 0.00,60.00,Friday
2232,0.0
2233,0.0
5265,8302.385256053747
2,5,10, 5, 0,23, 0.00,60.00,Friday
2232,0.0
2233,0.0
5265,8274.6610094604
2,5,10, 5, 0,24, 0.00,60.00,Friday
2232,0.0
2233,0.0
5265,8251.785744148436
2,6,10, 6, 0, 1, 0.00,60.00,Saturday
2232,0.0
2233,0.0
5265,8227.092290450148
2,6,10, 6, 0, 2, 0.00,60.00,Saturday
2232,0.0
2233,0.0
5265,8211.745087087356
2,6,10, 6, 0, 3, 0.00,60.00,Saturday
2232,0.0
2233,0.0
5265,8186.1763357901245
2,6,10, 6, 0, 4, 0.00,60.00,Saturday
2232,0.0
2233,0.0
5265,8165.1273473812025
2,6,10, 6, 0, 5, 0.00,60.00,Saturday
2232,0.0
2233,0.0
5265,8148.091930887143
2,6,10, 6, 0, 6, 0.00,60.00,Saturday
2232,14.981745191665036
2233,9.453640568631409
5265,8123.044671147877
2,6,10, 6, 0, 7, 0.00,60.00,Saturday
2232,91.92089663935906
2233,58.22763318754426
5265,8088.073747255706
2,6,10, 6, 0, 8, 0.00,60.00,Saturday
2232,189.67881069002008
2233,117.5558723812386
5265,8084.534057445607
2,6,10, 6, 0, 9, 0.00,60.00,Saturday
2232,288.4780590851925
2233,180.16011353365699
5265,42017.617610649235
2,6,10, 6, 0,10, 0.00,60.00,Saturday
2232,311.4823924522225
2233,199.02548974274115
5265,62863.03457220164
2,6,10, 6, 0,11, 0.00,60.00,Saturday
2232,288.55401268298399
2233,189.52710981615793
5265,77315.49049848529
2,6,10, 6, 0,12, 0.00,60.00,Saturday
2232,277.1839948288699
2233,184.46651180899085
5265,71461.19539885178
2,6,10, 6, 0,13, 0.00,60.00,Saturday
2232,270.2803819049613
2233,177.52111487636624
5265,60027.249158196
2,6,10, 6, 0,14, 0.00,60.00,Saturday
2232,260.02311330958909
2233,166.1947507764026
5265,52716.39150605052
2,6,10, 6, 0,15, 0.00,60.00,Saturday
2232,232.9593335217833
2233,145.58010213058734
5265,52901.90953420754
2,6,10, 6, 0,16, 0.00,60.00,Saturday
2232,171.96598512214613
2233,106.57519387254432
5265,47742.450718410284
2,6,10, 6, 0,17, 0.00,60.00,Saturday
2232,87.04166432383836
2233,53.5851131071227
5265,39062.84939258679
2,6,10, 6, 0,18, 0.00,60.00,Saturday
2232,8.92164237548832
2233,5.411104509083555
5265,35196.17321883032
2,6,10, 6, 0,19, 0.00,60.00,Saturday
2232,0.0
2233,0.0
5265,28437.524266959594
2,6,10, 6, 0,20, 0.00,60.00,Saturday
2232,0.0
2233,0.0
5265,11550.653583167235
2,6,10, 6, 0,21, 0.00,60.00,Saturday
2232,0.0
2233,0.0
5265,11437.326617759098
2,6,10, 6, 0,22, 0.00,60.00,Saturday
2232,0.0
2233,0.0
5265,8659.929748262692
2,6,10, 6, 0,23, 0.00,60.00,Saturday
2232,0.0
2233,0.0
5265,8333.537838187729
2,6,10, 6, 0,24, 0.00,60.00,Saturday
2232,0.0
2233,0.0
5265,8163.660278728296
2,7,10, 7, 0, 1, 0.00,60.00,Sunday
2232,0.0
2233,0.0
5265,8111.202482247805
2,7,10, 7, 0, 2, 0.00,60.00,Sunday
2232,0.0
2233,0.0
5265,8090.155648342062
2,7,10, 7, 0, 3, 0.00,60.00,Sunday
2232,0.0
2233,0.0
5265,8062.37310243419
2,7,10, 7, 0, 4, 0.00,60.00,Sunday
2232,0.0
2233,0.0
5265,8018.734225066746
2,7,10, 7, 0, 5, 0.00,60.00,Sunday
2232,0.0
2233,0.0
5265,7971.564423304116
2,7,10, 7, 0, 6, 0.00,60.00,Sunday
2232,15.335566680918669
2233,9.677562823467286
5265,7952.251588246166
2,7,10, 7, 0, 7, 0.00,60.00,Sunday
2232,97.1740291657657
2233,61.54053466539708
5265,7997.518313342406
2,7,10, 7, 0, 8, 0.00,60.00,Sunday
2232,206.83584190217884
2233,128.27513164034424
5265,8085.846554862585
2,7,10, 7, 0, 9, 0.00,60.00,Sunday
2232,275.0186553250348
2233,171.80661685647716
5265,8193.984124693228
2,7,10, 7, 0,10, 0.00,60.00,Sunday
2232,287.71224183079559
2233,183.86451066016438
5265,8297.56981592204
2,7,10, 7, 0,11, 0.00,60.00,Sunday
2232,271.86946121066759
2233,178.2163315662939
5265,8360.658693805277
2,7,10, 7, 0,12, 0.00,60.00,Sunday
2232,253.4368725631955
2233,167.8616319278782
5265,8362.419651984199
2,7,10, 7, 0,13, 0.00,60.00,Sunday
2232,247.03680895030758
2233,161.92630238753697
5265,8302.59724577555
2,7,10, 7, 0,14, 0.00,60.00,Sunday
2232,237.39521581959398
2233,151.80352783442329
5265,8241.296296139868
2,7,10, 7, 0,15, 0.00,60.00,Sunday
2232,221.28117452467243
2233,138.43948663204493
5265,8225.907498645138
2,7,10, 7, 0,16, 0.00,60.00,Sunday
2232,165.31487405315586
2233,102.64385243725597
5265,8280.416538718475
2,7,10, 7, 0,17, 0.00,60.00,Sunday
2232,83.60220564742098
2233,51.62770393245131
5265,8343.284995973807
2,7,10, 7, 0,18, 0.00,60.00,Sunday
2232,8.590803625216707
2233,5.235508695722128
5265,8378.32262599058
2,7,10, 7, 0,19, 0.00,60.00,Sunday
2232,0.0
2233,0.0
5265,8344.888557940634
2,7,10, 7, 0,20, 0.00,60.00,Sunday
2232,0.0
2233,0.0
5265,8290.82378337969
2,7,10, 7, 0,21, 0.00,60.00,Sunday
2232,0.0
2233,0.0
5265,8239.39428167459
2,7,10, 7, 0,22, 0.00,60.00,Sunday
2232,0.0
2233,0.0
5265,8180.910664430896
2,7,10, 7, 0,23, 0.00,60.00,Sunday
2232,0.0
2233,0.0
5265,8115.165312058459
2,7,10, 7, 0,24, 0.00,60.00,Sunday
2232,0.0
2233,0.0
5265,8071.751144707306
2,8,10, 8, 0, 1, 0.00,60.00,Monday
2232,0.0
2233,0.0
5265,7698.376667773341
2,8,10, 8, 0, 2, 0.00,60.00,Monday
2232,0.0
2233,0.0
5265,7742.621717960744
2,8,10, 8, 0, 3, 0.00,60.00,Monday
2232,0.0
2233,0.0
5265,7689.925948879467
2,8,10, 8, 0, 4, 0.00,60.00,Monday
2232,0.0
2233,0.0
5265,7615.853338119475
2,8,10, 8, 0, 5, 0.00,60.00,Monday
2232,0.0
2233,0.0
5265,7548.412174881789
2,8,10, 8, 0, 6, 0.00,60.00,Monday
2232,16.307757729958586
2233,10.264232663465924
5265,7495.091409304536
2,8,10, 8, 0, 7, 0.00,60.00,Monday
2232,98.5224375138961
2233,62.41787176206741
5265,7471.492238146036
2,8,10, 8, 0, 8, 0.00,60.00,Monday
2232,193.67540472604927
2233,120.14028688504611
5265,29274.053845859173
2,8,10, 8, 0, 9, 0.00,60.00,Monday
2232,269.4970732654802
2233,168.4140885948345
5265,60329.55862856596
2,8,10, 8, 0,10, 0.00,60.00,Monday
2232,288.89762842401049
2233,184.62388603534513
5265,88209.76860122707
2,8,10, 8, 0,11, 0.00,60.00,Monday
2232,276.8515039661177
2233,181.59477814762284
5265,90382.80833215238
2,8,10, 8, 0,12, 0.00,60.00,Monday
2232,255.46976546543645
2233,169.2579073844306
5265,129638.87493534725
2,8,10, 8, 0,13, 0.00,60.00,Monday
2232,235.7181337728548
2233,154.54539531462718
5265,132296.78843596718
2,8,10, 8, 0,14, 0.00,60.00,Monday
2232,205.4883097469647
2233,132.02304819430797
5265,165472.909355166
2,8,10, 8, 0,15, 0.00,60.00,Monday
2232,170.49324821658895
2233,107.50094741900218
5265,174776.83976231016
2,8,10, 8, 0,16, 0.00,60.00,Monday
2232,119.77782879118017
2233,75.01397729179785
5265,156130.41335377153
2,8,10, 8, 0,17, 0.00,60.00,Monday
2232,57.0182131336339
2233,36.05968781419727
5265,135066.12095610635
2,8,10, 8, 0,18, 0.00,60.00,Monday
2232,5.921398011831296
2233,3.728901307003566
5265,52367.77156877942
2,8,10, 8, 0,19, 0.00,60.00,Monday
2232,0.0
2233,0.0
5265,25739.4679833514
2,8,10, 8, 0,20, 0.00,60.00,Monday
2232,0.0
2233,0.0
5265,10855.946360711298
2,8,10, 8, 0,21, 0.00,60.00,Monday
2232,0.0
2233,0.0
5265,8427.067171104942
2,8,10, 8, 0,22, 0.00,60.00,Monday
2232,0.0
2233,0.0
5265,7978.519323328625
2,8,10, 8, 0,23, 0.00,60.00,Monday
2232,0.0
2233,0.0
5265,7942.427727076604
2,8,10, 8, 0,24, 0.00,60.00,Monday
2232,0.0
2233,0.0
5265,7914.250342202453
2,9,10, 9, 0, 1, 0.00,60.00,Tuesday
2232,0.0
2233,0.0
5265,7118.495555056973
2,9,10, 9, 0, 2, 0.00,60.00,Tuesday
2232,0.0
2233,0.0
5265,7207.281565435503
2,9,10, 9, 0, 3, 0.00,60.00,Tuesday
2232,0.0
2233,0.0
5265,7154.349535514295
2,9,10, 9, 0, 4, 0.00,60.00,Tuesday
2232,0.0
2233,0.0
5265,7080.629733334416
2,9,10, 9, 0, 5, 0.00,60.00,Tuesday
2232,0.0
2233,0.0
5265,7002.569997388203
2,9,10, 9, 0, 6, 0.00,60.00,Tuesday
2232,30.457811641394547
2233,16.762420145676015
5265,7130.039205391812
2,9,10, 9, 0, 7, 0.00,60.00,Tuesday
2232,177.67946029487977
2233,106.91769789274281
5265,7518.739944541361
2,9,10, 9, 0, 8, 0.00,60.00,Tuesday
2232,317.9407439723995
2233,191.34323255243167
5265,20821.88286234628
2,9,10, 9, 0, 9, 0.00,60.00,Tuesday
2232,381.2196381853574
2233,233.399494616751
5265,73580.27454968059
2,9,10, 9, 0,10, 0.00,60.00,Tuesday
2232,364.4026757815611
2233,229.5931624779743
5265,105802.16524354521
2,9,10, 9, 0,11, 0.00,60.00,Tuesday
2232,308.99565068052348
2233,201.83421687054148
5265,114569.86337199506
2,9,10, 9, 0,12, 0.00,60.00,Tuesday
2232,275.5747816086566
2233,183.7167092559625
5265,152515.74335141525
2,9,10, 9, 0,13, 0.00,60.00,Tuesday
2232,286.769373194674
2233,187.7805671499807
5265,144409.74563089107
2,9,10, 9, 0,14, 0.00,60.00,Tuesday
2232,301.9570272132568
2233,190.8246836803695
5265,168095.51463243963
2,9,10, 9, 0,15, 0.00,60.00,Tuesday
2232,262.6877338300828
2233,161.58451194003696
5265,147038.68868657424
2,9,10, 9, 0,16, 0.00,60.00,Tuesday
2232,174.83579049003854
2233,107.84665796334089
5265,149418.42702746197
2,9,10, 9, 0,17, 0.00,60.00,Tuesday
2232,70.86855408337934
2233,44.342428562570947
5265,125277.24251466495
2,9,10, 9, 0,18, 0.00,60.00,Tuesday
2232,6.709517280687329
2233,4.183526423475173
5265,111272.44913226261
2,9,10, 9, 0,19, 0.00,60.00,Tuesday
2232,0.0
2233,0.0
5265,66334.83006347544
2,9,10, 9, 0,20, 0.00,60.00,Tuesday
2232,0.0
2233,0.0
5265,32261.00407953699
2,9,10, 9, 0,21, 0.00,60.00,Tuesday
2232,0.0
2233,0.0
5265,8657.365337249343
2,9,10, 9, 0,22, 0.00,60.00,Tuesday
2232,0.0
2233,0.0
5265,8393.891789855055
2,9,10, 9, 0,23, 0.00,60.00,Tuesday
2232,0.0
2233,0.0
5265,8303.11011072275
2,9,10, 9, 0,24, 0.00,60.00,Tuesday
2232,0.0
2233,0.0
5265,8257.114984990514
2,10,10,10, 0, 1, 0.00,60.00,Wednesday
2232,0.0
2233,0.0
5265,8227.520130876934
2,10,10,10, 0, 2, 0.00,60.00,Wednesday
2232,0.0
2233,0.0
5265,8202.301203417288
2,10,10,10, 0, 3, 0.00,60.00,Wednesday
2232,0.0
2233,0.0
5265,8173.120012358976
2,10,10,10, 0, 4, 0.00,60.00,Wednesday
2232,0.0
2233,0.0
5265,8123.695856437897
2,10,10,10, 0, 5, 0.00,60.00,Wednesday
2232,0.0
2233,0.0
5265,8004.223856137913
2,10,10,10, 0, 6, 0.00,60.00,Wednesday
2232,16.8476950405768
2233,10.581007256482876
5265,8025.32163806337
2,10,10,10, 0, 7, 0.00,60.00,Wednesday
2232,100.04554870816129
2233,63.30408788256554
5265,8193.973597584341
2,10,10,10, 0, 8, 0.00,60.00,Wednesday
2232,190.12441764960364
2233,117.79287851236298
5265,25395.92305440037
2,10,10,10, 0, 9, 0.00,60.00,Wednesday
2232,288.35691744466018
2233,180.03157345843719
5265,80937.03948565091
2,10,10,10, 0,10, 0.00,60.00,Wednesday
2232,309.6830565020168
2233,197.8557549412369
5265,113535.66595216735
2,10,10,10, 0,11, 0.00,60.00,Wednesday
2232,283.0735241875291
2233,186.0246026284311
5265,135568.48255048824
2,10,10,10, 0,12, 0.00,60.00,Wednesday
2232,237.2841104683762
2233,158.78277078229267
5265,171797.0015835306
2,10,10,10, 0,13, 0.00,60.00,Wednesday
2232,269.63024921481448
2233,176.49552964858905
5265,172075.3852376791
2,10,10,10, 0,14, 0.00,60.00,Wednesday
2232,296.6682554695365
2233,187.30454651255728
5265,172349.08140390129
2,10,10,10, 0,15, 0.00,60.00,Wednesday
2232,286.248864866774
2233,175.6510455278587
5265,178722.44441488773
2,10,10,10, 0,16, 0.00,60.00,Wednesday
2232,220.58300487488476
2233,133.37577201635686
5265,144704.32387494669
2,10,10,10, 0,17, 0.00,60.00,Wednesday
2232,113.2953111345776
2233,67.71473833153662
5265,83126.94133805315
2,10,10,10, 0,18, 0.00,60.00,Wednesday
2232,11.946161576582531
2233,6.931991817485586
5265,52928.220861403686
2,10,10,10, 0,19, 0.00,60.00,Wednesday
2232,0.0
2233,0.0
5265,23332.621091336565
2,10,10,10, 0,20, 0.00,60.00,Wednesday
2232,0.0
2233,0.0
5265,9363.135168454479
2,10,10,10, 0,21, 0.00,60.00,Wednesday
2232,0.0
2233,0.0
5265,8906.097268901556
2,10,10,10, 0,22, 0.00,60.00,Wednesday
2232,0.0
2233,0.0
5265,8461.424292333237
2,10,10,10, 0,23, 0.00,60.00,Wednesday
2232,0.0
2233,0.0
5265,8429.75455117574
2,10,10,10, 0,24, 0.00,60.00,Wednesday
2232,0.0
2233,0.0
5265,8392.421807566958
2,11,10,11, 0, 1, 0.00,60.00,Thursday
2232,0.0
2233,0.0
5265,8341.804300886108
2,11,10,11, 0, 2, 0.00,60.00,Thursday
2232,0.0
2233,0.0
5265,8281.248006173311
2,11,10,11, 0, 3, 0.00,60.00,Thursday
2232,0.0
2233,0.0
5265,8241.326451603132
2,11,10,11, 0, 4, 0.00,60.00,Thursday
2232,0.0
2233,0.0
5265,8214.779396360484
2,11,10,11, 0, 5, 0.00,60.00,Thursday
2232,0.0
2233,0.0
5265,8188.431172257285
2,11,10,11, 0, 6, 0.00,60.00,Thursday
2232,18.789076671160048
2233,11.704387466000095
5265,8210.104326549166
2,11,10,11, 0, 7, 0.00,60.00,Thursday
2232,113.42509944234856
2233,71.58661853942812
5265,8316.259039214901
2,11,10,11, 0, 8, 0.00,60.00,Thursday
2232,214.88141023691296
2233,133.197964420803
5265,23841.304298915366
2,11,10,11, 0, 9, 0.00,60.00,Thursday
2232,277.71133395266056
2233,173.42173695139864
5265,114294.39010982959
2,11,10,11, 0,10, 0.00,60.00,Thursday
2232,289.3816512201203
2233,184.8891462133034
5265,148732.71421859673
2,11,10,11, 0,11, 0.00,60.00,Thursday
2232,277.9176978540066
2233,182.23377399427978
5265,167397.05805223264
2,11,10,11, 0,12, 0.00,60.00,Thursday
2232,270.4863687684673
2233,179.59350249298289
5265,169387.46940710888
2,11,10,11, 0,13, 0.00,60.00,Thursday
2232,269.27743375347219
2233,176.8969973123645
5265,172179.06898911837
2,11,10,11, 0,14, 0.00,60.00,Thursday
2232,266.6644402072396
2233,170.18060021904837
5265,184378.43612080735
2,11,10,11, 0,15, 0.00,60.00,Thursday
2232,238.55920172095547
2233,149.0257306395187
5265,180287.19520647356
2,11,10,11, 0,16, 0.00,60.00,Thursday
2232,170.68243464699649
2233,105.55543736243611
5265,181889.17237612629
2,11,10,11, 0,17, 0.00,60.00,Thursday
2232,81.83984003703931
2233,50.39829839873414
5265,168316.49390294867
2,11,10,11, 0,18, 0.00,60.00,Thursday
2232,8.35439073696689
2233,5.080560890034154
5265,88468.09575751437
2,11,10,11, 0,19, 0.00,60.00,Thursday
2232,0.0
2233,0.0
5265,63635.61657467206
2,11,10,11, 0,20, 0.00,60.00,Thursday
2232,0.0
2233,0.0
5265,45701.25363686597
2,11,10,11, 0,21, 0.00,60.00,Thursday
2232,0.0
2233,0.0
5265,8466.666047906043
2,11,10,11, 0,22, 0.00,60.00,Thursday
2232,0.0
2233,0.0
5265,8421.903071748247
2,11,10,11, 0,23, 0.00,60.00,Thursday
2232,0.0
2233,0.0
5265,8379.96448065601
2,11,10,11, 0,24, 0.00,60.00,Thursday
2232,0.0
2233,0.0
5265,8333.445606882622
2,12,10,12, 0, 1, 0.00,60.00,Friday
2232,0.0
2233,0.0
5265,8261.998467784719
2,12,10,12, 0, 2, 0.00,60.00,Friday
2232,0.0
2233,0.0
5265,8183.592451689925
2,12,10,12, 0, 3, 0.00,60.00,Friday
2232,0.0
2233,0.0
5265,8149.8225089277
2,12,10,12, 0, 4, 0.00,60.00,Friday
2232,0.0
2233,0.0
5265,8186.35427347048
2,12,10,12, 0, 5, 0.00,60.00,Friday
2232,0.0
2233,0.0
5265,8223.872679040307
2,12,10,12, 0, 6, 0.00,60.00,Friday
2232,17.90366765767955
2233,11.200785894697484
5265,8258.686432764758
2,12,10,12, 0, 7, 0.00,60.00,Friday
2232,111.12159457979679
2233,70.14419980618836
5265,8329.008309524916
2,12,10,12, 0, 8, 0.00,60.00,Friday
2232,219.24526598563569
2233,135.96891233790189
5265,29218.277632498546
2,12,10,12, 0, 9, 0.00,60.00,Friday
2232,285.6660159876316
2233,178.33775288358619
5265,91784.92754309079
2,12,10,12, 0,10, 0.00,60.00,Friday
2232,296.31102871629818
2233,189.26541056087368
5265,150581.45620920845
2,12,10,12, 0,11, 0.00,60.00,Friday
2232,280.1895135753434
2233,183.79411120016824
5265,148979.12796781734
2,12,10,12, 0,12, 0.00,60.00,Friday
2232,265.91045681531076
2233,176.4285325765833
5265,151816.20811391003
2,12,10,12, 0,13, 0.00,60.00,Friday
2232,258.95763861195948
2233,169.87802749512319
5265,161173.2083014819
2,12,10,12, 0,14, 0.00,60.00,Friday
2232,252.41919726327749
2233,161.35594284001287
5265,168559.49395646447
2,12,10,12, 0,15, 0.00,60.00,Friday
2232,225.69632273743947
2233,141.08646137905735
5265,148748.75703896106
2,12,10,12, 0,16, 0.00,60.00,Friday
2232,164.31994132904203
2233,101.9448462826341
5265,131572.9648168677
2,12,10,12, 0,17, 0.00,60.00,Friday
2232,76.97631544509848
2233,47.65125858677927
5265,122015.85385035417
2,12,10,12, 0,18, 0.00,60.00,Friday
2232,7.674310167852835
2233,4.701047269054782
5265,56021.64856766024
2,12,10,12, 0,19, 0.00,60.00,Friday
2232,0.0
2233,0.0
5265,29686.72647204244
2,12,10,12, 0,20, 0.00,60.00,Friday
2232,0.0
2233,0.0
5265,18672.198826466443
2,12,10,12, 0,21, 0.00,60.00,Friday
2232,0.0
2233,0.0
5265,13465.181014624715
2,12,10,12, 0,22, 0.00,60.00,Friday
2232,0.0
2233,0.0
5265,8281.713703951324
2,12,10,12, 0,23, 0.00,60.00,Friday
2232,0.0
2233,0.0
5265,8184.047521500495
2,12,10,12, 0,24, 0.00,60.00,Friday
2232,0.0
2233,0.0
5265,8116.356621736838
2,13,10,13, 0, 1, 0.00,60.00,Saturday
2232,0.0
2233,0.0
5265,8106.180895712106
2,13,10,13, 0, 2, 0.00,60.00,Saturday
2232,0.0
2233,0.0
5265,8109.302913806266
2,13,10,13, 0, 3, 0.00,60.00,Saturday
2232,0.0
2233,0.0
5265,8112.384528282621
2,13,10,13, 0, 4, 0.00,60.00,Saturday
2232,0.0
2233,0.0
5265,8106.488888246743
2,13,10,13, 0, 5, 0.00,60.00,Saturday
2232,0.0
2233,0.0
5265,8100.743542255955
2,13,10,13, 0, 6, 0.00,60.00,Saturday
2232,18.759110262086517
2233,11.688558850237812
5265,8130.514315456966
2,13,10,13, 0, 7, 0.00,60.00,Saturday
2232,113.10626054803679
2233,71.39919574640317
5265,8239.375064396074
2,13,10,13, 0, 8, 0.00,60.00,Saturday
2232,215.00462325905259
2233,133.29257887667044
5265,8384.500569184725
2,13,10,13, 0, 9, 0.00,60.00,Saturday
2232,284.6759874826874
2233,177.7240619627634
5265,58306.22498839366
2,13,10,13, 0,10, 0.00,60.00,Saturday
2232,298.35382509750226
2233,190.5619494433981
5265,82807.54528308769
2,13,10,13, 0,11, 0.00,60.00,Saturday
2232,282.0309077794341
2233,185.04427341495163
5265,93784.4908512116
2,13,10,13, 0,12, 0.00,60.00,Saturday
2232,268.8530586811311
2233,178.57266712333559
5265,84307.9190016538
2,13,10,13, 0,13, 0.00,60.00,Saturday
2232,265.08284219495087
2233,174.06053344800299
5265,63975.160739196384
2,13,10,13, 0,14, 0.00,60.00,Saturday
2232,262.4049156675133
2233,167.73770668121365
5265,57377.87405625854
2,13,10,13, 0,15, 0.00,60.00,Saturday
2232,234.01480729450706
2233,146.20223373092228
5265,57454.42608125165
2,13,10,13, 0,16, 0.00,60.00,Saturday
2232,170.17382781099398
2233,105.12301431223527
5265,51700.89549890637
2,13,10,13, 0,17, 0.00,60.00,Saturday
2232,79.37772344406285
2233,48.93753300843425
5265,42132.832363907524
2,13,10,13, 0,18, 0.00,60.00,Saturday
2232,7.902310654313823
2233,4.809375255103994
5265,36011.12878871522
2,13,10,13, 0,19, 0.00,60.00,Saturday
2232,0.0
2233,0.0
5265,28637.980488356585
2,13,10,13, 0,20, 0.00,60.00,Saturday
2232,0.0
2233,0.0
5265,12608.786766737308
2,13,10,13, 0,21, 0.00,60.00,Saturday
2232,0.0
2233,0.0
5265,12456.051674440028
2,13,10,13, 0,22, 0.00,60.00,Saturday
2232,0.0
2233,0.0
5265,8686.196754520204
2,13,10,13, 0,23, 0.00,60.00,Saturday
2232,0.0
2233,0.0
5265,8439.505433815648
2,13,10,13, 0,24, 0.00,60.00,Saturday
2232,0.0
2233,0.0