Program Version,EnergyPlus, Version 8.7.0-78a111df4a, YMD=2019.12.26 10:18
1,5,Environment Title[],Latitude[deg],Longitude[deg],Time Zone[],Elevation[m]
2,6,Day of Simulation[],Month[],Day of Month[],DST Indicator[1=yes 0=no],Hour[],StartMinute[],EndMinute[],DayType
3,3,Cumulative Day of Simulation[],Month[],Day of Month[],DST Indicator[1=yes 0=no],DayType  ! When Daily Report Variables Requested
4,2,Cumulative Days of Simulation[],Month[]  ! When Monthly Report Variables Requested
5,1,Cumulative Days of Simulation[] ! When Run Period Report Variables Requested
2232,1,AF305DAYLIGHINGCONTROL,Daylighting Reference Point 1 Illuminance [lux] !Hourly
2233,1,AF305DAYLIGHINGCONTROL,Daylighting Reference Point 2 Illuminance [lux] !Hourly
5265,1,Whole Building,Facility Total Electric Demand Power [W] !Hourly
End of Data Dictionary
1,RUNPERIOD,  10.30, 123.97,   8.00,  24.00
2,1,10, 1, 0, 1, 0.00,60.00,Monday
2232,0.0
2233,0.0
5265,7959.2340340260525
2,1,10, 1, 0, 2, 0.00,60.00,Monday
2232,0.0
2233,0.0
5265,7873.480624506763
2,1,10, 1, 0, 3, 0.00,60.00,Monday
2232,0.0
2233,0.0
5265,7736.39281216278
2,1,10, 1, 0, 4, 0.00,60.00,Monday
2232,0.0
2233,0.0
5265,7669.686931190198
2,1,10, 1, 0, 5, 0.00,60.00,Monday
2232,0.0
2233,0.0
5265,7605.573975803229
2,1,10, 1, 0, 6, 0.00,60.00,Monday
2232,49.16385883369805
2233,25.212727425034286
5265,7665.214675931843
2,1,10, 1, 0, 7, 0.00,60.00,Monday
2232,256.69609633742899
2233,149.84163905217327
5265,7801.817526176565
2,1,10, 1, 0, 8, 0.00,60.00,Monday
2232,411.80689360630489
2233,245.11217065814822
5265,29701.938650045155
2,1,10, 1, 0, 9, 0.00,60.00,Monday
2232,478.7196324163427
2233,292.301962221979
5265,61848.50338016476
2,1,10, 1, 0,10, 0.00,60.00,Monday
2232,456.17022643913227
2233,287.4562852875263
5265,96199.4211061483
2,1,10, 1, 0,11, 0.00,60.00,Monday
2232,384.9241481613398
2233,251.5725876196234
5265,97931.51885578752
2,1,10, 1, 0,12, 0.00,60.00,Monday
2232,316.40483681967529
2233,211.48310405885466
5265,141604.59820598065
2,1,10, 1, 0,13, 0.00,60.00,Monday
2232,327.173693407577
2233,215.14851706943328
5265,145039.4042143056
2,1,10, 1, 0,14, 0.00,60.00,Monday
2232,325.17798013909899
2233,207.95360245769528
5265,170319.78647607968
2,1,10, 1, 0,15, 0.00,60.00,Monday
2232,261.4853777479351
2233,163.70919204234085
5265,177555.71170813536
2,1,10, 1, 0,16, 0.00,60.00,Monday
2232,171.67721555084067
2233,107.06254482606714
5265,158697.68371688625
2,1,10, 1, 0,17, 0.00,60.00,Monday
2232,68.3807700265785
2233,43.3128038982614
5265,137192.77380015577
2,1,10, 1, 0,18, 0.00,60.00,Monday
2232,7.758976150512378
2233,4.916431178129176
5265,52784.818975842885
2,1,10, 1, 0,19, 0.00,60.00,Monday
2232,0.0
2233,0.0
5265,25999.083045837124
2,1,10, 1, 0,20, 0.00,60.00,Monday
2232,0.0
2233,0.0
5265,10994.476428200645
2,1,10, 1, 0,21, 0.00,60.00,Monday
2232,0.0
2233,0.0
5265,8577.795462242471
2,1,10, 1, 0,22, 0.00,60.00,Monday
2232,0.0
2233,0.0
5265,8150.562530488366
2,1,10, 1, 0,23, 0.00,60.00,Monday
2232,0.0
2233,0.0
5265,8136.888514586783
2,1,10, 1, 0,24, 0.00,60.00,Monday
2232,0.0
2233,0.0
5265,8119.398837225795
2,2,10, 2, 0, 1, 0.00,60.00,Tuesday
2232,0.0
2233,0.0
5265,7867.88330061716
2,2,10, 2, 0, 2, 0.00,60.00,Tuesday
2232,0.0
2233,0.0
5265,7777.1476081734
2,2,10, 2, 0, 3, 0.00,60.00,Tuesday
2232,0.0
2233,0.0
5265,7667.301407217766
2,2,10, 2, 0, 4, 0.00,60.00,Tuesday
2232,0.0
2233,0.0
5265,7551.190045651364
2,2,10, 2, 0, 5, 0.00,60.00,Tuesday
2232,0.0
2233,0.0
5265,7424.286700321288
2,2,10, 2, 0, 6, 0.00,60.00,Tuesday
2232,50.40842237476818
2233,25.706043080716424
5265,7536.338552744021
2,2,10, 2, 0, 7, 0.00,60.00,Tuesday
2232,265.93143815887069
2233,153.72107316309678
5265,7972.732579801817
2,2,10, 2, 0, 8, 0.00,60.00,Tuesday
2232,432.16302641817699
2233,254.35246541823086
5265,21084.495961413428
2,2,10, 2, 0, 9, 0.00,60.00,Tuesday
2232,494.1589091101573
2233,300.7644121292148
5265,82346.46017097096
2,2,10, 2, 0,10, 0.00,60.00,Tuesday
2232,465.1994733331191
2233,292.74000772270196
5265,115205.90929378009
2,2,10, 2, 0,11, 0.00,60.00,Tuesday
2232,373.5029487803781
2233,244.12224309843274
5265,120925.85725725773
2,2,10, 2, 0,12, 0.00,60.00,Tuesday
2232,327.6221172172952
2233,218.51067455632845
5265,151738.6328218753
2,2,10, 2, 0,13, 0.00,60.00,Tuesday
2232,327.47366212518247
2233,214.93394905713755
5265,136588.60570392037
2,2,10, 2, 0,14, 0.00,60.00,Tuesday
2232,286.339085701913
2233,183.3417533996732
5265,154141.4796466276
2,2,10, 2, 0,15, 0.00,60.00,Tuesday
2232,243.90635269823259
2233,153.00607110099473
5265,130313.27310140715
2,2,10, 2, 0,16, 0.00,60.00,Tuesday
2232,172.3183523017484
2233,107.42270616719545
5265,135051.86132021555
2,2,10, 2, 0,17, 0.00,60.00,Tuesday
2232,86.33416094296253
2233,54.417862998682128
5265,110847.06050792294
2,2,10, 2, 0,18, 0.00,60.00,Tuesday
2232,9.786216437863017
2233,6.14134116292616
5265,109441.19910545259
2,2,10, 2, 0,19, 0.00,60.00,Tuesday
2232,0.0
2233,0.0
5265,64249.07299808992
2,2,10, 2, 0,20, 0.00,60.00,Tuesday
2232,0.0
2233,0.0
5265,31286.681564760223
2,2,10, 2, 0,21, 0.00,60.00,Tuesday
2232,0.0
2233,0.0
5265,8632.09762611168
2,2,10, 2, 0,22, 0.00,60.00,Tuesday
2232,0.0
2233,0.0
5265,8386.152243243805
2,2,10, 2, 0,23, 0.00,60.00,Tuesday
2232,0.0
2233,0.0
5265,8335.026467204432
2,2,10, 2, 0,24, 0.00,60.00,Tuesday
2232,0.0
2233,0.0
5265,8295.401821224472
2,3,10, 3, 0, 1, 0.00,60.00,Wednesday
2232,0.0
2233,0.0
5265,8218.903132084177
2,3,10, 3, 0, 2, 0.00,60.00,Wednesday
2232,0.0
2233,0.0
5265,8121.950194455774
2,3,10, 3, 0, 3, 0.00,60.00,Wednesday
2232,0.0
2233,0.0
5265,7992.122818873356
2,3,10, 3, 0, 4, 0.00,60.00,Wednesday
2232,0.0
2233,0.0
5265,7928.509336255766
2,3,10, 3, 0, 5, 0.00,60.00,Wednesday
2232,0.0
2233,0.0
5265,7856.33672454124
2,3,10, 3, 0, 6, 0.00,60.00,Wednesday
2232,20.547876060360865
2233,12.920530040301918
5265,7897.641580376349
2,3,10, 3, 0, 7, 0.00,60.00,Wednesday
2232,127.2059263583593
2233,80.49103067467867
5265,8081.325108747825
2,3,10, 3, 0, 8, 0.00,60.00,Wednesday
2232,264.67498815734
2233,164.11726629765395
5265,25186.20994524461
2,3,10, 3, 0, 9, 0.00,60.00,Wednesday
2232,373.9970997909077
2233,233.51226397327944
5265,75691.05439934705
2,3,10, 3, 0,10, 0.00,60.00,Wednesday
2232,390.57298931449039
2233,249.5082290727585
5265,112756.83673532901
2,3,10, 3, 0,11, 0.00,60.00,Wednesday
2232,362.821928084082
2233,238.18272261813176
5265,133384.7950868719
2,3,10, 3, 0,12, 0.00,60.00,Wednesday
2232,329.7576231847568
2233,218.64233059528034
5265,164777.6926580811
2,3,10, 3, 0,13, 0.00,60.00,Wednesday
2232,295.762606323997
2233,193.9451140883655
5265,155796.17790812409
2,3,10, 3, 0,14, 0.00,60.00,Wednesday
2232,265.09036423228079
2233,170.21540674716423
5265,152865.20237996189
2,3,10, 3, 0,15, 0.00,60.00,Wednesday
2232,252.62373866231517
2233,158.33291427521676
5265,158308.407822009
2,3,10, 3, 0,16, 0.00,60.00,Wednesday
2232,204.79459153572408
2233,127.30834154117157
5265,123409.38186705993
2,3,10, 3, 0,17, 0.00,60.00,Wednesday
2232,108.65143802724102
2233,67.16422384702268
5265,68402.49240324398
2,3,10, 3, 0,18, 0.00,60.00,Wednesday
2232,13.135214984247279
2233,7.974163619259676
5265,52188.31736217005
2,3,10, 3, 0,19, 0.00,60.00,Wednesday
2232,0.0
2233,0.0
5265,22663.04861548352
2,3,10, 3, 0,20, 0.00,60.00,Wednesday
2232,0.0
2233,0.0
5265,9042.397569858804
2,3,10, 3, 0,21, 0.00,60.00,Wednesday
2232,0.0
2233,0.0
5265,8519.656976130174
2,3,10, 3, 0,22, 0.00,60.00,Wednesday
2232,0.0
2233,0.0
5265,8099.8497191630195
2,3,10, 3, 0,23, 0.00,60.00,Wednesday
2232,0.0
2233,0.0
5265,8126.1669229825975
2,3,10, 3, 0,24, 0.00,60.00,Wednesday
2232,0.0
2233,0.0
5265,8123.567146775113
2,4,10, 4, 0, 1, 0.00,60.00,Thursday
2232,0.0
2233,0.0
5265,8059.445665957645
2,4,10, 4, 0, 2, 0.00,60.00,Thursday
2232,0.0
2233,0.0
5265,7984.257691591555
2,4,10, 4, 0, 3, 0.00,60.00,Thursday
2232,0.0
2233,0.0
5265,7923.5749176475265
2,4,10, 4, 0, 4, 0.00,60.00,Thursday
2232,0.0
2233,0.0
5265,7908.460090768509
2,4,10, 4, 0, 5, 0.00,60.00,Thursday
2232,0.0
2233,0.0
5265,7906.542687718092
2,4,10, 4, 0, 6, 0.00,60.00,Thursday
2232,25.347818434251669
2233,15.678261642919383
5265,7928.626864506714
2,4,10, 4, 0, 7, 0.00,60.00,Thursday
2232,157.22668607050347
2233,99.10821157530519
5265,8000.300629276187
2,4,10, 4, 0, 8, 0.00,60.00,Thursday
2232,311.75062497790847
2233,192.2940142569288
5265,22699.031137020433
2,4,10, 4, 0, 9, 0.00,60.00,Thursday
2232,385.5600527172694
2233,240.55481044660812
5265,96257.91241464978
2,4,10, 4, 0,10, 0.00,60.00,Thursday
2232,390.01164168790839
2233,249.22333263880925
5265,132089.24011030093
2,4,10, 4, 0,11, 0.00,60.00,Thursday
2232,361.19959348370397
2233,237.13851689053423
5265,157431.61746292434
2,4,10, 4, 0,12, 0.00,60.00,Thursday
2232,340.45404319238528
2233,226.0940268023701
5265,161777.51493185306
2,4,10, 4, 0,13, 0.00,60.00,Thursday
2232,332.2705920480096
2233,218.06568929389347
5265,164405.51673091143
2,4,10, 4, 0,14, 0.00,60.00,Thursday
2232,323.38994712944068
2233,206.7129731910791
5265,176301.92105801966
2,4,10, 4, 0,15, 0.00,60.00,Thursday
2232,301.7372141648086
2233,188.4992967988213
5265,165850.3763181376
2,4,10, 4, 0,16, 0.00,60.00,Thursday
2232,228.810396056507
2233,140.9865074630043
5265,172087.54407643205
2,4,10, 4, 0,17, 0.00,60.00,Thursday
2232,117.92009369508276
2233,72.18242377737117
5265,160268.97059719734
2,4,10, 4, 0,18, 0.00,60.00,Thursday
2232,15.543296539093549
2233,9.303288660589958
5265,87294.9234797348
2,4,10, 4, 0,19, 0.00,60.00,Thursday
2232,0.0
2233,0.0
5265,62345.287996808205
2,4,10, 4, 0,20, 0.00,60.00,Thursday
2232,0.0
2233,0.0
5265,44474.35702236674
2,4,10, 4, 0,21, 0.00,60.00,Thursday
2232,0.0
2233,0.0
5265,8248.84657985771
2,4,10, 4, 0,22, 0.00,60.00,Thursday
2232,0.0
2233,0.0
5265,8236.80356546019
2,4,10, 4, 0,23, 0.00,60.00,Thursday
2232,0.0
2233,0.0
5265,8234.014732438978
2,4,10, 4, 0,24, 0.00,60.00,Thursday
2232,0.0
2233,0.0
5265,8190.4897343301345
2,5,10, 5, 0, 1, 0.00,60.00,Friday
2232,0.0
2233,0.0
5265,8093.750169465643
2,5,10, 5, 0, 2, 0.00,60.00,Friday
2232,0.0
2233,0.0
5265,7994.786715674317
2,5,10, 5, 0, 3, 0.00,60.00,Friday
2232,0.0
2233,0.0
5265,7930.291689937293
2,5,10, 5, 0, 4, 0.00,60.00,Friday
2232,0.0
2233,0.0
5265,7913.813525734309
2,5,10, 5, 0, 5, 0.00,60.00,Friday
2232,0.0
2233,0.0
5265,7905.567625255771
2,5,10, 5, 0, 6, 0.00,60.00,Friday
2232,37.96461250597637
2233,20.915584260527586
5265,7921.5474519447935
2,5,10, 5, 0, 7, 0.00,60.00,Friday
2232,211.27774463373025
2233,128.30918384542856
5265,7979.774875078184
2,5,10, 5, 0, 8, 0.00,60.00,Friday
2232,336.81062675546726
2233,206.55206978069908
5265,28011.262216850588
2,5,10, 5, 0, 9, 0.00,60.00,Friday
2232,397.363652828793
2233,246.94041565995816
5265,70132.30282244759
2,5,10, 5, 0,10, 0.00,60.00,Friday
2232,384.97762475936539
2233,245.96479625398005
5265,137496.24180194635
2,5,10, 5, 0,11, 0.00,60.00,Friday
2232,355.4171594612776
2233,233.32596291112578
5265,136026.0033845743
2,5,10, 5, 0,12, 0.00,60.00,Friday
2232,323.1958036830263
2233,215.69346726599395
5265,142402.1523569268
2,5,10, 5, 0,13, 0.00,60.00,Friday
2232,338.4187640768701
2233,221.575484604066
5265,156211.40937801582
2,5,10, 5, 0,14, 0.00,60.00,Friday
2232,379.8958890235331
2233,239.95513656461504
5265,166530.41294917759
2,5,10, 5, 0,15, 0.00,60.00,Friday
2232,360.37163203026508
2233,221.19007252091715
5265,145061.415940472
2,5,10, 5, 0,16, 0.00,60.00,Friday
2232,245.3328398516443
2233,149.33847030818357
5265,126184.88369386265
2,5,10, 5, 0,17, 0.00,60.00,Friday
2232,116.84820368399072
2233,71.44410296427155
5265,116957.94573003894
2,5,10, 5, 0,18, 0.00,60.00,Friday
2232,12.775641637126869
2233,7.694761555067461
5265,55629.600793639904
2,5,10, 5, 0,19, 0.00,60.00,Friday
2232,0.0
2233,0.0
5265,29410.674113013
2,5,10, 5, 0,20, 0.00,60.00,Friday
2232,0.0
2233,0.0
5265,18541.491253276505
2,5,10, 5, 0,21, 0.00,60.00,Friday
2232,0.0
2233,0.0
5265,13411.169614681488
2,5,10, 5, 0,22, 0.00,60.00,Friday
2232,0.0
2233,0.0
5265,8302.385256053747
2,5,10, 5, 0,23, 0.00,60.00,Friday
2232,0.0
2233,0.0
5265,8274.6610094604
2,5,10, 5, 0,24, 0.00,60.00,Friday
2232,0.0
2233,0.0
5265,8251.785744148436
2,6,10, 6, 0, 1, 0.00,60.00,Saturday
2232,0.0
2233,0.0
5265,8227.092290450148
2,6,10, 6, 0, 2, 0.00,60.00,Saturday
2232,0.0
2233,0.0
5265,8211.745087087356
2,6,10, 6, 0, 3, 0.00,60.00,Saturday
2232,0.0
2233,0.0
5265,8186.1763357901245
2,6,10, 6, 0, 4, 0.00,60.00,Saturday
2232,0.0
2233,0.0
5265,8165.1273473812025
2,6,10, 6, 0, 5, 0.00,60.00,Saturday
2232,0.0
2233,0.0
5265,8148.091930887143
2,6,10, 6, 0, 6, 0.00,60.00,Saturday
2232,18.727181489574865
2233,11.817050710785331
5265,8123.044671147877
2,6,10, 6, 0, 7, 0.00,60.00,Saturday
2232,114.90112079915764
2233,72.78454148440511
5265,8088.073747255706
2,6,10, 6, 0, 8, 0.00,60.00,Saturday
2232,237.0985133624532
2233,146.94484047651179
5265,8084.534057445607
2,6,10, 6, 0, 9, 0.00,60.00,Saturday
2232,360.5975738563861
2233,225.20014191701993
5265,42017.617610649235
2,6,10, 6, 0,10, 0.00,60.00,Saturday
2232,389.35299056516757
2233,248.78186217836939
5265,62863.03457220164
2,6,10, 6, 0,11, 0.00,60.00,Saturday
2232,360.692515853631
2233,236.9088872701437
5265,77315.49049848529
2,6,10, 6, 0,12, 0.00,60.00,Saturday
2232,346.47999353599468
2233,230.5831397611873
5265,71461.19539885178
2,6,10, 6, 0,13, 0.00,60.00,Saturday
2232,337.85047738110895
2233,221.9013935954085
5265,60027.249158196
2,6,10, 6, 0,14, 0.00,60.00,Saturday
2232,325.028891636893
2233,207.7434384704567
5265,52716.39150605052
2,6,10, 6, 0,15, 0.00,60.00,Saturday
2232,291.19916690214208
2233,181.97512766319256
5265,52901.90953420754
2,6,10, 6, 0,16, 0.00,60.00,Saturday
2232,214.95748140261743
2233,133.218992340649
5265,47742.450718410284
2,6,10, 6, 0,17, 0.00,60.00,Saturday
2232,108.80208040476401
2233,66.98139138388624
5265,39062.84939258679
2,6,10, 6, 0,18, 0.00,60.00,Saturday
2232,11.152052969356776
2233,6.763880636352579
5265,35196.17321883032
2,6,10, 6, 0,19, 0.00,60.00,Saturday
2232,0.0
2233,0.0
5265,28437.524266959594
2,6,10, 6, 0,20, 0.00,60.00,Saturday
2232,0.0
2233,0.0
5265,11550.653583167235
2,6,10, 6, 0,21, 0.00,60.00,Saturday
2232,0.0
2233,0.0
5265,11437.326617759098
2,6,10, 6, 0,22, 0.00,60.00,Saturday
2232,0.0
2233,0.0
5265,8659.929748262692
2,6,10, 6, 0,23, 0.00,60.00,Saturday
2232,0.0
2233,0.0
5265,8333.537838187729
2,6,10, 6, 0,24, 0.00,60.00,Saturday
2232,0.0
2233,0.0
5265,8163.660278728296
2,7,10, 7, 0, 1, 0.00,60.00,Sunday
2232,0.0
2233,0.0
5265,8111.202482247805
2,7,10, 7, 0, 2, 0.00,60.00,Sunday
2232,0.0
2233,0.0
5265,8090.155648342062
2,7,10, 7, 0, 3, 0.00,60.00,Sunday
2232,0.0
2233,0.0
5265,8062.37310243419
2,7,10, 7, 0, 4, 0.00,60.00,Sunday
2232,0.0
2233,0.0
5265,8018.734225066746
2,7,10, 7, 0, 5, 0.00,60.00,Sunday
2232,0.0
2233,0.0
5265,7971.564423304116
2,7,10, 7, 0, 6, 0.00,60.00,Sunday
2232,19.169458351141644
2233,12.09695352932998
5265,7952.251588246166
2,7,10, 7, 0, 7, 0.00,60.00,Sunday
2232,121.46753645716258
2233,76.92566833171878
5265,7997.518313342406
2,7,10, 7, 0, 8, 0.00,60.00,Sunday
2232,258.5448023776434
2233,160.34391455038893
5265,8085.846554862585
2,7,10, 7, 0, 9, 0.00,60.00,Sunday
2232,343.7733191561938
2233,214.75827107054725
5265,8193.984124693228
2,7,10, 7, 0,10, 0.00,60.00,Sunday
2232,359.64030228839285
2233,229.83063832515288
5265,8297.56981592204
2,7,10, 7, 0,11, 0.00,60.00,Sunday
2232,339.8368265132423
2233,222.77041445781743
5265,8360.658693805277
2,7,10, 7, 0,12, 0.00,60.00,Sunday
2232,316.7960907039099
2233,209.82703990980122
5265,8362.419651984199
2,7,10, 7, 0,13, 0.00,60.00,Sunday
2232,308.79601118780018
2233,202.40787798437635
5265,8302.59724577555
2,7,10, 7, 0,14, 0.00,60.00,Sunday
2232,296.74401977440757
2233,189.75440979298666
5265,8241.296296139868
2,7,10, 7, 0,15, 0.00,60.00,Sunday
2232,276.6014681557581
2233,173.0493582900166
5265,8225.907498645138
2,7,10, 7, 0,16, 0.00,60.00,Sunday
2232,206.64359256638236
2233,128.30481554653984
5265,8280.416538718475
2,7,10, 7, 0,17, 0.00,60.00,Sunday
2232,104.50275705924384
2233,64.53462991554774
5265,8343.284995973807
2,7,10, 7, 0,18, 0.00,60.00,Sunday
2232,10.738504531517436
2233,6.544385869650874
5265,8378.32262599058
2,7,10, 7, 0,19, 0.00,60.00,Sunday
2232,0.0
2233,0.0
5265,8344.888557940634
2,7,10, 7, 0,20, 0.00,60.00,Sunday
2232,0.0
2233,0.0
5265,8290.82378337969
2,7,10, 7, 0,21, 0.00,60.00,Sunday
2232,0.0
2233,0.0
5265,8239.39428167459
2,7,10, 7, 0,22, 0.00,60.00,Sunday
2232,0.0
2233,0.0
5265,8180.910664430896
2,7,10, 7, 0,23, 0.00,60.00,Sunday
2232,0.0
2233,0.0
5265,8115.165312058459
2,7,10, 7, 0,24, 0.00,60.00,Sunday
2232,0.0
2233,0.0
5265,8071.751144707306
2,8,10, 8, 0, 1, 0.00,60.00,Monday
2232,0.0
2233,0.0
5265,7698.376667773341
2,8,10, 8, 0, 2, 0.00,60.00,Monday
2232,0.0
2233,0.0
5265,7742.621717960744
2,8,10, 8, 0, 3, 0.00,60.00,Monday
2232,0.0
2233,0.0
5265,7689.925948879467
2,8,10, 8, 0, 4, 0.00,60.00,Monday
2232,0.0
2233,0.0
5265,7615.853338119475
2,8,10, 8, 0, 5, 0.00,60.00,Monday
2232,0.0
2233,0.0
5265,7548.412174881789
2,8,10, 8, 0, 6, 0.00,60.00,Monday
2232,20.38469716244097
2233,12.830290829327894
5265,7495.091409304536
2,8,10, 8, 0, 7, 0.00,60.00,Monday
2232,123.15304689232426
2233,78.02233970255559
5265,7471.492238146036
2,8,10, 8, 0, 8, 0.00,60.00,Monday
2232,242.0942559074871
2233,150.17535860626928
5265,29274.053845859173
2,8,10, 8, 0, 9, 0.00,60.00,Monday
2232,336.8713415817526
2233,210.51761074349489
5265,60329.55862856596
2,8,10, 8, 0,10, 0.00,60.00,Monday
2232,361.1220355299109
2233,230.77985754412863
5265,88209.76860122707
2,8,10, 8, 0,11, 0.00,60.00,Monday
2232,346.06437995755319
2233,226.9934726844776
5265,90382.80833215238
2,8,10, 8, 0,12, 0.00,60.00,Monday
2232,319.3372068317103
2233,211.5723842304914
5265,129638.87493534725
2,8,10, 8, 0,13, 0.00,60.00,Monday
2232,294.6476672159885
2233,193.1817441432413
5265,132296.78843596718
2,8,10, 8, 0,14, 0.00,60.00,Monday
2232,256.8603871836337
2233,165.0288102428483
5265,165472.909355166
2,8,10, 8, 0,15, 0.00,60.00,Monday
2232,213.11656027067407
2233,134.37618427372233
5265,174776.83976231016
2,8,10, 8, 0,16, 0.00,60.00,Monday
2232,149.72228598893097
2233,93.76747161472548
5265,156130.41335377153
2,8,10, 8, 0,17, 0.00,60.00,Monday
2232,71.27276641702166
2233,45.07460976773584
5265,135066.12095610635
2,8,10, 8, 0,18, 0.00,60.00,Monday
2232,7.401747514786936
2233,4.661126633753299
5265,52367.77156877942
2,8,10, 8, 0,19, 0.00,60.00,Monday
2232,0.0
2233,0.0
5265,25739.4679833514
2,8,10, 8, 0,20, 0.00,60.00,Monday
2232,0.0
2233,0.0
5265,10855.946360711298
2,8,10, 8, 0,21, 0.00,60.00,Monday
2232,0.0
2233,0.0
5265,8427.067171104942
2,8,10, 8, 0,22, 0.00,60.00,Monday
2232,0.0
2233,0.0
5265,7978.519323328625
2,8,10, 8, 0,23, 0.00,60.00,Monday
2232,0.0
2233,0.0
5265,7942.427727076604
2,8,10, 8, 0,24, 0.00,60.00,Monday
2232,0.0
2233,0.0
5265,7914.250342202453
2,9,10, 9, 0, 1, 0.00,60.00,Tuesday
2232,0.0
2233,0.0
5265,7118.495555056973
2,9,10, 9, 0, 2, 0.00,60.00,Tuesday
2232,0.0
2233,0.0
5265,7207.281565435503
2,9,10, 9, 0, 3, 0.00,60.00,Tuesday
2232,0.0
2233,0.0
5265,7154.349535514295
2,9,10, 9, 0, 4, 0.00,60.00,Tuesday
2232,0.0
2233,0.0
5265,7080.629733334416
2,9,10, 9, 0, 5, 0.00,60.00,Tuesday
2232,0.0
2233,0.0
5265,7002.569997388203
2,9,10, 9, 0, 6, 0.00,60.00,Tuesday
2232,38.07226455172631
2233,20.953025182087349
5265,7130.039205391812
2,9,10, 9, 0, 7, 0.00,60.00,Tuesday
2232,222.09932536849795
2233,133.64712236586775
5265,7518.739944541361
2,9,10, 9, 0, 8, 0.00,60.00,Tuesday
2232,397.4259299653618
2233,239.17904069047075
5265,20821.88286234628
2,9,10, 9, 0, 9, 0.00,60.00,Tuesday
2232,476.52454773155389
2233,291.7493682708722
5265,73580.27454968059
2,9,10, 9, 0,10, 0.00,60.00,Tuesday
2232,455.5033447268158
2233,286.99145309739796
5265,105802.16524354521
2,9,10, 9, 0,11, 0.00,60.00,Tuesday
2232,386.2445633505436
2233,252.2927710881148
5265,114569.86337199506
2,9,10, 9, 0,12, 0.00,60.00,Tuesday
2232,344.4684770107233
2233,229.64588656989586
5265,152515.74335141525
2,9,10, 9, 0,13, 0.00,60.00,Tuesday
2232,358.4617164932381
2233,234.7257089374175
5265,144409.74563089107
2,9,10, 9, 0,14, 0.00,60.00,Tuesday
2232,377.4462840164559
2233,238.5308546004037
5265,168095.51463243963
2,9,10, 9, 0,15, 0.00,60.00,Tuesday
2232,328.35966728750079
2233,201.98063992499849
5265,147038.68868657424
2,9,10, 9, 0,16, 0.00,60.00,Tuesday
2232,218.5447381124811
2233,134.8083224541442
5265,149418.42702746197
2,9,10, 9, 0,17, 0.00,60.00,Tuesday
2232,88.58569260419766
2233,55.42803570320012
5265,125277.24251466495
2,9,10, 9, 0,18, 0.00,60.00,Tuesday
2232,8.386896600856624
2233,5.229408029342625
5265,111272.44913226261
2,9,10, 9, 0,19, 0.00,60.00,Tuesday
2232,0.0
2233,0.0
5265,66334.83006347544
2,9,10, 9, 0,20, 0.00,60.00,Tuesday
2232,0.0
2233,0.0
5265,32261.00407953699
2,9,10, 9, 0,21, 0.00,60.00,Tuesday
2232,0.0
2233,0.0
5265,8657.365337249343
2,9,10, 9, 0,22, 0.00,60.00,Tuesday
2232,0.0
2233,0.0
5265,8393.891789855055
2,9,10, 9, 0,23, 0.00,60.00,Tuesday
2232,0.0
2233,0.0
5265,8303.11011072275
2,9,10, 9, 0,24, 0.00,60.00,Tuesday
2232,0.0
2233,0.0
5265,8257.114984990514
2,10,10,10, 0, 1, 0.00,60.00,Wednesday
2232,0.0
2233,0.0
5265,8227.520130876934
2,10,10,10, 0, 2, 0.00,60.00,Wednesday
2232,0.0
2233,0.0
5265,8202.301203417288
2,10,10,10, 0, 3, 0.00,60.00,Wednesday
2232,0.0
2233,0.0
5265,8173.120012358976
2,10,10,10, 0, 4, 0.00,60.00,Wednesday
2232,0.0
2233,0.0
5265,8123.695856437897
2,10,10,10, 0, 5, 0.00,60.00,Wednesday
2232,0.0
2233,0.0
5265,8004.223856137913
2,10,10,10, 0, 6, 0.00,60.00,Wednesday
2232,21.059618800713485
2233,13.226259070598934
5265,8025.32163806337
2,10,10,10, 0, 7, 0.00,60.00,Wednesday
2232,125.05693588515516
2233,79.13010985317794
5265,8193.973597584341
2,10,10,10, 0, 8, 0.00,60.00,Wednesday
2232,237.65552206193218
2233,147.24109814041689
5265,25395.92305440037
2,10,10,10, 0, 9, 0.00,60.00,Wednesday
2232,360.44614680572047
2233,225.03946682299509
5265,80937.03948565091
2,10,10,10, 0,10, 0.00,60.00,Wednesday
2232,387.1038206274111
2233,247.31969367648936
5265,113535.66595216735
2,10,10,10, 0,11, 0.00,60.00,Wednesday
2232,353.8419052343141
2233,232.53075328548608
5265,135568.48255048824
2,10,10,10, 0,12, 0.00,60.00,Wednesday
2232,296.6051380853885
2233,198.4784634778201
5265,171797.0015835306
2,10,10,10, 0,13, 0.00,60.00,Wednesday
2232,337.037811518421
2233,220.6194120606843
5265,172075.3852376791
2,10,10,10, 0,14, 0.00,60.00,Wednesday
2232,370.835319336808
2233,234.13068314064069
5265,172349.08140390129
2,10,10,10, 0,15, 0.00,60.00,Wednesday
2232,357.8110810833544
2233,219.56380690977015
5265,178722.44441488773
2,10,10,10, 0,16, 0.00,60.00,Wednesday
2232,275.7287560935168
2233,166.71971502040425
5265,144704.32387494669
2,10,10,10, 0,17, 0.00,60.00,Wednesday
2232,141.61913891817435
2233,84.64342291439742
5265,83126.94133805315
2,10,10,10, 0,18, 0.00,60.00,Wednesday
2232,14.932701970722816
2233,8.664989771854368
5265,52928.220861403686
2,10,10,10, 0,19, 0.00,60.00,Wednesday
2232,0.0
2233,0.0
5265,23332.621091336565
2,10,10,10, 0,20, 0.00,60.00,Wednesday
2232,0.0
2233,0.0
5265,9363.135168454479
2,10,10,10, 0,21, 0.00,60.00,Wednesday
2232,0.0
2233,0.0
5265,8906.097268901556
2,10,10,10, 0,22, 0.00,60.00,Wednesday
2232,0.0
2233,0.0
5265,8461.424292333237
2,10,10,10, 0,23, 0.00,60.00,Wednesday
2232,0.0
2233,0.0
5265,8429.75455117574
2,10,10,10, 0,24, 0.00,60.00,Wednesday
2232,0.0
2233,0.0
5265,8392.421807566958
2,11,10,11, 0, 1, 0.00,60.00,Thursday
2232,0.0
2233,0.0
5265,8341.804300886108
2,11,10,11, 0, 2, 0.00,60.00,Thursday
2232,0.0
2233,0.0
5265,8281.248006173311
2,11,10,11, 0, 3, 0.00,60.00,Thursday
2232,0.0
2233,0.0
5265,8241.326451603132
2,11,10,11, 0, 4, 0.00,60.00,Thursday
2232,0.0
2233,0.0
5265,8214.779396360484
2,11,10,11, 0, 5, 0.00,60.00,Thursday
2232,0.0
2233,0.0
5265,8188.431172257285
2,11,10,11, 0, 6, 0.00,60.00,Thursday
2232,23.48634583894137
2233,14.63048433249474
5265,8210.104326549166
2,11,10,11, 0, 7, 0.00,60.00,Thursday
2232,141.7813743028809
2233,89.48327317425044
5265,8316.259039214901
2,11,10,11, 0, 8, 0.00,60.00,Thursday
2232,268.6017627960575
2233,166.4974555259604
5265,23841.304298915366
2,11,10,11, 0, 9, 0.00,60.00,Thursday
2232,347.13916744072488
2233,216.77717118919854
5265,114294.39010982959
2,11,10,11, 0,10, 0.00,60.00,Thursday
2232,361.72706402504817
2233,231.1114327665763
5265,148732.71421859673
2,11,10,11, 0,11, 0.00,60.00,Thursday
2232,347.3971223174138
2233,227.79221749279859
5265,167397.05805223264
2,11,10,11, 0,12, 0.00,60.00,Thursday
2232,338.1079609604937
2233,224.4918781161787
5265,169387.46940710888
2,11,10,11, 0,13, 0.00,60.00,Thursday
2232,336.59679219174788
2233,221.12124664040656
5265,172179.06898911837
2,11,10,11, 0,14, 0.00,60.00,Thursday
2232,333.3305502589526
2233,212.72575027376264
5265,184378.43612080735
2,11,10,11, 0,15, 0.00,60.00,Thursday
2232,298.19900215110496
2233,186.28216329935584
5265,180287.19520647356
2,11,10,11, 0,16, 0.00,60.00,Thursday
2232,213.35304330868054
2233,131.94429670301398
5265,181889.17237612629
2,11,10,11, 0,17, 0.00,60.00,Thursday
2232,102.29980004626727
2233,62.99787299840159
5265,168316.49390294867
2,11,10,11, 0,18, 0.00,60.00,Thursday
2232,10.442988421205249
2233,6.350701112540953
5265,88468.09575751437
2,11,10,11, 0,19, 0.00,60.00,Thursday
2232,0.0
2233,0.0
5265,63635.61657467206
2,11,10,11, 0,20, 0.00,60.00,Thursday
2232,0.0
2233,0.0
5265,45701.25363686597
2,11,10,11, 0,21, 0.00,60.00,Thursday
2232,0.0
2233,0.0
5265,8466.666047906043
2,11,10,11, 0,22, 0.00,60.00,Thursday
2232,0.0
2233,0.0
5265,8421.903071748247
2,11,10,11, 0,23, 0.00,60.00,Thursday
2232,0.0
2233,0.0
5265,8379.96448065601
2,11,10,11, 0,24, 0.00,60.00,Thursday
2232,0.0
2233,0.0
5265,8333.445606882622
2,12,10,12, 0, 1, 0.00,60.00,Friday
2232,0.0
2233,0.0
5265,8261.998467784719
2,12,10,12, 0, 2, 0.00,60.00,Friday
2232,0.0
2233,0.0
5265,8183.592451689925
2,12,10,12, 0, 3, 0.00,60.00,Friday
2232,0.0
2233,0.0
5265,8149.8225089277
2,12,10,12, 0, 4, 0.00,60.00,Friday
2232,0.0
2233,0.0
5265,8186.35427347048
2,12,10,12, 0, 5, 0.00,60.00,Friday
2232,0.0
2233,0.0
5265,8223.872679040307
2,12,10,12, 0, 6, 0.00,60.00,Friday
2232,22.379584572091287
2233,14.000982368366787
5265,8258.686432764758
2,12,10,12, 0, 7, 0.00,60.00,Friday
2232,138.90199322469253
2233,87.68024975770168
5265,8329.008309524916
2,12,10,12, 0, 8, 0.00,60.00,Friday
2232,274.05658248195888
2233,169.9611404223328
5265,29218.277632498546
2,12,10,12, 0, 9, 0.00,60.00,Friday
2232,357.0825199844359
2233,222.92219110443186
5265,91784.92754309079
2,12,10,12, 0,10, 0.00,60.00,Friday
2232,370.3887858952678
2233,236.5817632010379
5265,150581.45620920845
2,12,10,12, 0,11, 0.00,60.00,Friday
2232,350.23689196908398
2233,229.74263900015866
5265,148979.12796781734
2,12,10,12, 0,12, 0.00,60.00,Friday
2232,332.3880710190497
2233,220.53566572068019
5265,151816.20811391003
2,12,10,12, 0,13, 0.00,60.00,Friday
2232,323.6970482648608
2233,212.3475343688569
5265,161173.2083014819
2,12,10,12, 0,14, 0.00,60.00,Friday
2232,315.5239965790062
2233,201.6949285499709
5265,168559.49395646447
2,12,10,12, 0,15, 0.00,60.00,Friday
2232,282.120403421715
2233,176.35807672378136
5265,148748.75703896106
2,12,10,12, 0,16, 0.00,60.00,Friday
2232,205.39992666124034
2233,127.43105785326269
5265,131572.9648168677
2,12,10,12, 0,17, 0.00,60.00,Friday
2232,96.22039430634351
2233,59.56407323345908
5265,122015.85385035417
2,12,10,12, 0,18, 0.00,60.00,Friday
2232,9.592887709813008
2233,5.876309086316894
5265,56021.64856766024
2,12,10,12, 0,19, 0.00,60.00,Friday
2232,0.0
2233,0.0
5265,29686.72647204244
2,12,10,12, 0,20, 0.00,60.00,Friday
2232,0.0
2233,0.0
5265,18672.198826466443
2,12,10,12, 0,21, 0.00,60.00,Friday
2232,0.0
2233,0.0
5265,13465.181014624715
2,12,10,12, 0,22, 0.00,60.00,Friday
2232,0.0
2233,0.0
5265,8281.713703951324
2,12,10,12, 0,23, 0.00,60.00,Friday
2232,0.0
2233,0.0
5265,8184.047521500495
2,12,10,12, 0,24, 0.00,60.00,Friday
2232,0.0
2233,0.0
5265,8116.356621736838
2,13,10,13, 0, 1, 0.00,60.00,Saturday
2232,0.0
2233,0.0
5265,8106.180895712106
2,13,10,13, 0, 2, 0.00,60.00,Saturday
2232,0.0
2233,0.0
5265,8109.302913806266
2,13,10,13, 0, 3, 0.00,60.00,Saturday
2232,0.0
2233,0.0
5265,8112.384528282621
2,13,10,13, 0, 4, 0.00,60.00,Saturday
2232,0.0
2233,0.0
5265,8106.488888246743
2,13,10,13, 0, 5, 0.00,60.00,Saturday
2232,0.0
2233,0.0
5265,8100.743542255955
2,13,10,13, 0, 6, 0.00,60.00,Saturday
2232,23.448887827599454
2233,14.610698562791882
5265,8130.514315456966
2,13,10,13, 0, 7, 0.00,60.00,Saturday
2232,141.3828256849913
2233,89.24899468296928
5265,8239.375064396074
2,13,10,13, 0, 8, 0.00,60.00,Saturday
2232,268.75577907373209
2233,166.6157235957947
5265,8384.500569184725
2,13,10,13, 0, 9, 0.00,60.00,Saturday
2232,355.844984353256
2233,222.15507745340345
5265,58306.22498839366
2,13,10,13, 0,10, 0.00,60.00,Saturday
2232,372.942281371772
2233,238.202436804193
5265,82807.54528308769
2,13,10,13, 0,11, 0.00,60.00,Saturday
2232,352.5386347241967
2233,231.3053417686375
5265,93784.4908512116
2,13,10,13, 0,12, 0.00,60.00,Saturday
2232,336.066323351324
2233,223.21583390411988
5265,84307.9190016538
2,13,10,13, 0,13, 0.00,60.00,Saturday
2232,331.35355274359775
2233,217.57566680995547
5265,63975.160739196384
2,13,10,13, 0,14, 0.00,60.00,Saturday
2232,328.00614458429706
2233,209.67213335147009
5265,57377.87405625854
2,13,10,13, 0,15, 0.00,60.00,Saturday
2232,292.51850911804618
2233,182.75279216361109
5265,57454.42608125165
2,13,10,13, 0,16, 0.00,60.00,Saturday
2232,212.71728476367739
2233,131.403767890263
5265,51700.89549890637
2,13,10,13, 0,17, 0.00,60.00,Saturday
2232,99.22215430504771
2233,61.17191626052725
5265,42132.832363907524
2,13,10,13, 0,18, 0.00,60.00,Saturday
2232,9.877888317889103
2233,6.0117190688783499
5265,36011.12878871522
2,13,10,13, 0,19, 0.00,60.00,Saturday
2232,0.0
2233,0.0
5265,28637.980488356585
2,13,10,13, 0,20, 0.00,60.00,Saturday
2232,0.0
2233,0.0
5265,12608.786766737308
2,13,10,13, 0,21, 0.00,60.00,Saturday
2232,0.0
2233,0.0
5265,12456.051674440028
2,13,10,13, 0,22, 0.00,60.00,Saturday
2232,0.0
2233,0.0
5265,8686.196754520204
2,13,10,13, 0,23, 0.00,60.00,Saturday
2232,0.0
2233,0.0
5265,8439.505433815648
2,13,10,13, 0,24, 0.00,60.00,Saturday
2232,0.0
2233,0.0