Program Version,EnergyPlus, Version 8.7.0-78a111df4a, YMD=2019.12.26 10:08
1,5,Environment Title[],Latitude[deg],Longitude[deg],Time Zone[],Elevation[m]
2,6,Day of Simulation[],Month[],Day of Month[],DST Indicator[1=yes 0=no],Hour[],StartMinute[],EndMinute[],DayType
3,3,Cumulative Day of Simulation[],Month[],Day of Month[],DST Indicator[1=yes 0=no],DayType  ! When Daily Report Variables Requested
4,2,Cumulative Days of Simulation[],Month[]  ! When Monthly Report Variables Requested
5,1,Cumulative Days of Simulation[] ! When Run Period Report Variables Requested
2232,1,AF305DAYLIGHINGCONTROL,Daylighting Reference Point 1 Illuminance [lux] !Hourly
2233,1,AF305DAYLIGHINGCONTROL,Daylighting Reference Point 2 Illuminance [lux] !Hourly
5265,1,Whole Building,Facility Total Electric Demand Power [W] !Hourly
End of Data Dictionary
1,RUNPERIOD,  10.30, 123.97,   8.00,  24.00
2,1,10, 1, 0, 1, 0.00,60.00,Monday
2232,0.0
2233,0.0
5265,7959.2340340260525
2,1,10, 1, 0, 2, 0.00,60.00,Monday
2232,0.0
2233,0.0
5265,7873.480624506763
2,1,10, 1, 0, 3, 0.00,60.00,Monday
2232,0.0
2233,0.0
5265,7736.39281216278
2,1,10, 1, 0, 4, 0.00,60.00,Monday
2232,0.0
2233,0.0
5265,7669.686931190198
2,1,10, 1, 0, 5, 0.00,60.00,Monday
2232,0.0
2233,0.0
5265,7605.573975803229
2,1,10, 1, 0, 6, 0.00,60.00,Monday
2232,19.66554353348883
2233,10.085090970017488
5265,7665.214675931843
2,1,10, 1, 0, 7, 0.00,60.00,Monday
2232,102.67843853502537
2233,59.93665562090055
5265,7801.817526176565
2,1,10, 1, 0, 8, 0.00,60.00,Monday
2232,164.72275744258199
2233,98.04486826328876
5265,29701.938650045155
2,1,10, 1, 0, 9, 0.00,60.00,Monday
2232,191.48785296659455
2233,116.92078488881792
5265,61848.50338016476
2,1,10, 1, 0,10, 0.00,60.00,Monday
2232,182.4680905757074
2233,114.98251411503886
5265,96199.4211061483
2,1,10, 1, 0,11, 0.00,60.00,Monday
2232,153.96965926458004
2233,100.62903504787403
5265,97931.51885578752
2,1,10, 1, 0,12, 0.00,60.00,Monday
2232,126.5619347279054
2233,84.59324162356184
5265,141604.59820598065
2,1,10, 1, 0,13, 0.00,60.00,Monday
2232,130.86947736306719
2233,86.05940682779259
5265,145039.4042143056
2,1,10, 1, 0,14, 0.00,60.00,Monday
2232,130.07119205567694
2233,83.18144098309672
5265,170319.78647607968
2,1,10, 1, 0,15, 0.00,60.00,Monday
2232,104.59415109920509
2233,65.4836768169513
5265,177555.71170813536
2,1,10, 1, 0,16, 0.00,60.00,Monday
2232,68.67088622035678
2233,42.82501793043688
5265,158697.68371688625
2,1,10, 1, 0,17, 0.00,60.00,Monday
2232,27.352308010639307
2233,17.325121559308657
5265,137192.77380015577
2,1,10, 1, 0,18, 0.00,60.00,Monday
2232,3.1035904602058506
2233,1.9665724712521485
5265,52784.818975842885
2,1,10, 1, 0,19, 0.00,60.00,Monday
2232,0.0
2233,0.0
5265,25999.083045837124
2,1,10, 1, 0,20, 0.00,60.00,Monday
2232,0.0
2233,0.0
5265,10994.476428200645
2,1,10, 1, 0,21, 0.00,60.00,Monday
2232,0.0
2233,0.0
5265,8577.795462242471
2,1,10, 1, 0,22, 0.00,60.00,Monday
2232,0.0
2233,0.0
5265,8150.562530488366
2,1,10, 1, 0,23, 0.00,60.00,Monday
2232,0.0
2233,0.0
5265,8136.888514586783
2,1,10, 1, 0,24, 0.00,60.00,Monday
2232,0.0
2233,0.0
5265,8119.398837225795
2,2,10, 2, 0, 1, 0.00,60.00,Tuesday
2232,0.0
2233,0.0
5265,7867.88330061716
2,2,10, 2, 0, 2, 0.00,60.00,Tuesday
2232,0.0
2233,0.0
5265,7777.1476081734
2,2,10, 2, 0, 3, 0.00,60.00,Tuesday
2232,0.0
2233,0.0
5265,7667.301407217766
2,2,10, 2, 0, 4, 0.00,60.00,Tuesday
2232,0.0
2233,0.0
5265,7551.190045651364
2,2,10, 2, 0, 5, 0.00,60.00,Tuesday
2232,0.0
2233,0.0
5265,7424.286700321288
2,2,10, 2, 0, 6, 0.00,60.00,Tuesday
2232,20.16336894991711
2233,10.282417232290357
5265,7536.338552744021
2,2,10, 2, 0, 7, 0.00,60.00,Tuesday
2232,106.372575263604
2233,61.48842926527036
5265,7972.732579801817
2,2,10, 2, 0, 8, 0.00,60.00,Tuesday
2232,172.86521056733535
2233,101.7409861673233
5265,21084.495961413428
2,2,10, 2, 0, 9, 0.00,60.00,Tuesday
2232,197.66356364412273
2233,120.30576485171332
5265,82346.46017097096
2,2,10, 2, 0,10, 0.00,60.00,Tuesday
2232,186.07978933330333
2233,117.09600308910969
5265,115205.90929378009
2,2,10, 2, 0,11, 0.00,60.00,Tuesday
2232,149.4011795121938
2233,97.6488972393965
5265,120925.85725725773
2,2,10, 2, 0,12, 0.00,60.00,Tuesday
2232,131.04884688695356
2233,87.40426982255109
5265,151738.6328218753
2,2,10, 2, 0,13, 0.00,60.00,Tuesday
2232,130.9894648501088
2233,85.97357962287409
5265,136588.60570392037
2,2,10, 2, 0,14, 0.00,60.00,Tuesday
2232,114.53563428079777
2233,73.33670135988564
5265,154141.4796466276
2,2,10, 2, 0,15, 0.00,60.00,Tuesday
2232,97.56254107932183
2233,61.20242844041183
5265,130313.27310140715
2,2,10, 2, 0,16, 0.00,60.00,Tuesday
2232,68.92734092071996
2233,42.969082466888249
5265,135051.86132021555
2,2,10, 2, 0,17, 0.00,60.00,Tuesday
2232,34.53366437719515
2233,21.767145199478084
5265,110847.06050792294
2,2,10, 2, 0,18, 0.00,60.00,Tuesday
2232,3.914486575146373
2233,2.456536465171082
5265,109441.19910545259
2,2,10, 2, 0,19, 0.00,60.00,Tuesday
2232,0.0
2233,0.0
5265,64249.07299808992
2,2,10, 2, 0,20, 0.00,60.00,Tuesday
2232,0.0
2233,0.0
5265,31286.681564760223
2,2,10, 2, 0,21, 0.00,60.00,Tuesday
2232,0.0
2233,0.0
5265,8632.09762611168
2,2,10, 2, 0,22, 0.00,60.00,Tuesday
2232,0.0
2233,0.0
5265,8386.152243243805
2,2,10, 2, 0,23, 0.00,60.00,Tuesday
2232,0.0
2233,0.0
5265,8335.026467204432
2,2,10, 2, 0,24, 0.00,60.00,Tuesday
2232,0.0
2233,0.0
5265,8295.401821224472
2,3,10, 3, 0, 1, 0.00,60.00,Wednesday
2232,0.0
2233,0.0
5265,8218.903132084177
2,3,10, 3, 0, 2, 0.00,60.00,Wednesday
2232,0.0
2233,0.0
5265,8121.950194455774
2,3,10, 3, 0, 3, 0.00,60.00,Wednesday
2232,0.0
2233,0.0
5265,7992.122818873356
2,3,10, 3, 0, 4, 0.00,60.00,Wednesday
2232,0.0
2233,0.0
5265,7928.509336255766
2,3,10, 3, 0, 5, 0.00,60.00,Wednesday
2232,0.0
2233,0.0
5265,7856.33672454124
2,3,10, 3, 0, 6, 0.00,60.00,Wednesday
2232,8.219150424147268
2233,5.16821201612258
5265,7897.641580376349
2,3,10, 3, 0, 7, 0.00,60.00,Wednesday
2232,50.88237054336275
2233,32.196412269883349
5265,8081.325108747825
2,3,10, 3, 0, 8, 0.00,60.00,Wednesday
2232,105.86999526296875
2233,65.64690651907844
5265,25186.20994524461
2,3,10, 3, 0, 9, 0.00,60.00,Wednesday
2232,149.59883991640647
2233,93.40490558933296
5265,75691.05439934705
2,3,10, 3, 0,10, 0.00,60.00,Wednesday
2232,156.22919572584054
2233,99.8032916291263
5265,112756.83673532901
2,3,10, 3, 0,11, 0.00,60.00,Wednesday
2232,145.12877123367233
2233,95.27308904727414
5265,133384.7950868719
2,3,10, 3, 0,12, 0.00,60.00,Wednesday
2232,131.9030492739379
2233,87.45693223813152
5265,164777.6926580811
2,3,10, 3, 0,13, 0.00,60.00,Wednesday
2232,118.30504252963086
2233,77.57804563536333
5265,155796.17790812409
2,3,10, 3, 0,14, 0.00,60.00,Wednesday
2232,106.03614569294217
2233,68.08616269888081
5265,152865.20237996189
2,3,10, 3, 0,15, 0.00,60.00,Wednesday
2232,101.049495464956
2233,63.33316571010115
5265,158308.407822009
2,3,10, 3, 0,16, 0.00,60.00,Wednesday
2232,81.91783661431428
2233,50.92333661648058
5265,123409.38186705993
2,3,10, 3, 0,17, 0.00,60.00,Wednesday
2232,43.460575210909848
2233,26.86568953881589
5265,68402.49240324398
2,3,10, 3, 0,18, 0.00,60.00,Wednesday
2232,5.254085993700612
2233,3.189665447704749
5265,52188.31736217005
2,3,10, 3, 0,19, 0.00,60.00,Wednesday
2232,0.0
2233,0.0
5265,22663.04861548352
2,3,10, 3, 0,20, 0.00,60.00,Wednesday
2232,0.0
2233,0.0
5265,9042.397569858804
2,3,10, 3, 0,21, 0.00,60.00,Wednesday
2232,0.0
2233,0.0
5265,8519.656976130174
2,3,10, 3, 0,22, 0.00,60.00,Wednesday
2232,0.0
2233,0.0
5265,8099.8497191630195
2,3,10, 3, 0,23, 0.00,60.00,Wednesday
2232,0.0
2233,0.0
5265,8126.1669229825975
2,3,10, 3, 0,24, 0.00,60.00,Wednesday
2232,0.0
2233,0.0
5265,8123.567146775113
2,4,10, 4, 0, 1, 0.00,60.00,Thursday
2232,0.0
2233,0.0
5265,8059.445665957645
2,4,10, 4, 0, 2, 0.00,60.00,Thursday
2232,0.0
2233,0.0
5265,7984.257691591555
2,4,10, 4, 0, 3, 0.00,60.00,Thursday
2232,0.0
2233,0.0
5265,7923.5749176475265
2,4,10, 4, 0, 4, 0.00,60.00,Thursday
2232,0.0
2233,0.0
5265,7908.460090768509
2,4,10, 4, 0, 5, 0.00,60.00,Thursday
2232,0.0
2233,0.0
5265,7906.542687718092
2,4,10, 4, 0, 6, 0.00,60.00,Thursday
2232,10.139127373704563
2233,6.271304657170153
5265,7928.626864506714
2,4,10, 4, 0, 7, 0.00,60.00,Thursday
2232,62.890674428227047
2233,39.6432846301387
5265,8000.300629276187
2,4,10, 4, 0, 8, 0.00,60.00,Thursday
2232,124.70024999120365
2233,76.91760570279259
5265,22699.031137020433
2,4,10, 4, 0, 9, 0.00,60.00,Thursday
2232,154.22402108695233
2233,96.22192417866488
5265,96257.91241464978
2,4,10, 4, 0,10, 0.00,60.00,Thursday
2232,156.00465667520766
2233,99.68933305554656
5265,132089.24011030093
2,4,10, 4, 0,11, 0.00,60.00,Thursday
2232,144.4798373935209
2233,94.85540675623501
5265,157431.61746292434
2,4,10, 4, 0,12, 0.00,60.00,Thursday
2232,136.1816172769905
2233,90.43761072096815
5265,161777.51493185306
2,4,10, 4, 0,13, 0.00,60.00,Thursday
2232,132.90823681924028
2233,87.22627571757674
5265,164405.51673091143
2,4,10, 4, 0,14, 0.00,60.00,Thursday
2232,129.35597885181347
2233,82.68518927645015
5265,176301.92105801966
2,4,10, 4, 0,15, 0.00,60.00,Thursday
2232,120.69488566595959
2233,75.39971871954573
5265,165850.3763181376
2,4,10, 4, 0,16, 0.00,60.00,Thursday
2232,91.52415842263095
2233,56.3946029852151
5265,172087.54407643205
2,4,10, 4, 0,17, 0.00,60.00,Thursday
2232,47.168037478048059
2233,28.87296951095597
5265,160268.97059719734
2,4,10, 4, 0,18, 0.00,60.00,Thursday
2232,6.217318615639499
2233,3.7213154642370376
5265,87294.9234797348
2,4,10, 4, 0,19, 0.00,60.00,Thursday
2232,0.0
2233,0.0
5265,62345.287996808205
2,4,10, 4, 0,20, 0.00,60.00,Thursday
2232,0.0
2233,0.0
5265,44474.35702236674
2,4,10, 4, 0,21, 0.00,60.00,Thursday
2232,0.0
2233,0.0
5265,8248.84657985771
2,4,10, 4, 0,22, 0.00,60.00,Thursday
2232,0.0
2233,0.0
5265,8236.80356546019
2,4,10, 4, 0,23, 0.00,60.00,Thursday
2232,0.0
2233,0.0
5265,8234.014732438978
2,4,10, 4, 0,24, 0.00,60.00,Thursday
2232,0.0
2233,0.0
5265,8190.4897343301345
2,5,10, 5, 0, 1, 0.00,60.00,Friday
2232,0.0
2233,0.0
5265,8093.750169465643
2,5,10, 5, 0, 2, 0.00,60.00,Friday
2232,0.0
2233,0.0
5265,7994.786715674317
2,5,10, 5, 0, 3, 0.00,60.00,Friday
2232,0.0
2233,0.0
5265,7930.291689937293
2,5,10, 5, 0, 4, 0.00,60.00,Friday
2232,0.0
2233,0.0
5265,7913.813525734309
2,5,10, 5, 0, 5, 0.00,60.00,Friday
2232,0.0
2233,0.0
5265,7905.567625255771
2,5,10, 5, 0, 6, 0.00,60.00,Friday
2232,15.185845002397306
2233,8.366233704214125
5265,7921.5474519447935
2,5,10, 5, 0, 7, 0.00,60.00,Friday
2232,84.51109785353066
2233,51.32367353819496
5265,7979.774875078184
2,5,10, 5, 0, 8, 0.00,60.00,Friday
2232,134.72425070223168
2233,82.62082791230314
5265,28011.262216850588
2,5,10, 5, 0, 9, 0.00,60.00,Friday
2232,158.9454611315634
2233,98.77616626400543
5265,70132.30282244759
2,5,10, 5, 0,10, 0.00,60.00,Friday
2232,153.99104990378985
2233,98.38591850161459
5265,137496.24180194635
2,5,10, 5, 0,11, 0.00,60.00,Friday
2232,142.16686378454976
2233,93.3303851644713
5265,136026.0033845743
2,5,10, 5, 0,12, 0.00,60.00,Friday
2232,129.27832147324555
2233,86.27738690641701
5265,142402.1523569268
2,5,10, 5, 0,13, 0.00,60.00,Friday
2232,135.36750563078707
2233,88.63019384164737
5265,156211.40937801582
2,5,10, 5, 0,14, 0.00,60.00,Friday
2232,151.95835560945947
2233,95.98205462586918
5265,166530.41294917759
2,5,10, 5, 0,15, 0.00,60.00,Friday
2232,144.14865281215149
2233,88.4760290083881
5265,145061.415940472
2,5,10, 5, 0,16, 0.00,60.00,Friday
2232,98.1331359406888
2233,59.73538812328789
5265,126184.88369386265
2,5,10, 5, 0,17, 0.00,60.00,Friday
2232,46.73928147361112
2233,28.57764118571605
5265,116957.94573003894
2,5,10, 5, 0,18, 0.00,60.00,Friday
2232,5.110256654852432
2233,3.0779046220278447
5265,55629.600793639904
2,5,10, 5, 0,19, 0.00,60.00,Friday
2232,0.0
2233,0.0
5265,29410.674113013
2,5,10, 5, 0,20, 0.00,60.00,Friday
2232,0.0
2233,0.0
5265,18541.491253276505
2,5,10, 5, 0,21, 0.00,60.00,Friday
2232,0.0
2233,0.0
5265,13411.169614681488
2,5,10, 5, 0,22, 0.00,60.00,Friday
2232,0.0
2233,0.0
5265,8302.385256053747
2,5,10, 5, 0,23, 0.00,60.00,Friday
2232,0.0
2233,0.0
5265,8274.6610094604
2,5,10, 5, 0,24, 0.00,60.00,Friday
2232,0.0
2233,0.0
5265,8251.785744148436
2,6,10, 6, 0, 1, 0.00,60.00,Saturday
2232,0.0
2233,0.0
5265,8227.092290450148
2,6,10, 6, 0, 2, 0.00,60.00,Saturday
2232,0.0
2233,0.0
5265,8211.745087087356
2,6,10, 6, 0, 3, 0.00,60.00,Saturday
2232,0.0
2233,0.0
5265,8186.1763357901245
2,6,10, 6, 0, 4, 0.00,60.00,Saturday
2232,0.0
2233,0.0
5265,8165.1273473812025
2,6,10, 6, 0, 5, 0.00,60.00,Saturday
2232,0.0
2233,0.0
5265,8148.091930887143
2,6,10, 6, 0, 6, 0.00,60.00,Saturday
2232,7.490872595832518
2233,4.726820284315704
5265,8123.044671147877
2,6,10, 6, 0, 7, 0.00,60.00,Saturday
2232,45.96044831967953
2233,29.11381659377213
5265,8088.073747255706
2,6,10, 6, 0, 8, 0.00,60.00,Saturday
2232,94.83940534501004
2233,58.7779361906193
5265,8084.534057445607
2,6,10, 6, 0, 9, 0.00,60.00,Saturday
2232,144.23902954259627
2233,90.08005676682849
5265,42017.617610649235
2,6,10, 6, 0,10, 0.00,60.00,Saturday
2232,155.74119622611125
2233,99.51274487137057
5265,62863.03457220164
2,6,10, 6, 0,11, 0.00,60.00,Saturday
2232,144.27700634149199
2233,94.76355490807896
5265,77315.49049848529
2,6,10, 6, 0,12, 0.00,60.00,Saturday
2232,138.59199741443497
2233,92.23325590449542
5265,71461.19539885178
2,6,10, 6, 0,13, 0.00,60.00,Saturday
2232,135.14019095248066
2233,88.76055743818312
5265,60027.249158196
2,6,10, 6, 0,14, 0.00,60.00,Saturday
2232,130.01155665479454
2233,83.0973753882013
5265,52716.39150605052
2,6,10, 6, 0,15, 0.00,60.00,Saturday
2232,116.47966676089165
2233,72.79005106529367
5265,52901.90953420754
2,6,10, 6, 0,16, 0.00,60.00,Saturday
2232,85.98299256107306
2233,53.28759693627216
5265,47742.450718410284
2,6,10, 6, 0,17, 0.00,60.00,Saturday
2232,43.52083216191918
2233,26.79255655356135
5265,39062.84939258679
2,6,10, 6, 0,18, 0.00,60.00,Saturday
2232,4.46082118774416
2233,2.7055522545417776
5265,35196.17321883032
2,6,10, 6, 0,19, 0.00,60.00,Saturday
2232,0.0
2233,0.0
5265,28437.524266959594
2,6,10, 6, 0,20, 0.00,60.00,Saturday
2232,0.0
2233,0.0
5265,11550.653583167235
2,6,10, 6, 0,21, 0.00,60.00,Saturday
2232,0.0
2233,0.0
5265,11437.326617759098
2,6,10, 6, 0,22, 0.00,60.00,Saturday
2232,0.0
2233,0.0
5265,8659.929748262692
2,6,10, 6, 0,23, 0.00,60.00,Saturday
2232,0.0
2233,0.0
5265,8333.537838187729
2,6,10, 6, 0,24, 0.00,60.00,Saturday
2232,0.0
2233,0.0
5265,8163.660278728296
2,7,10, 7, 0, 1, 0.00,60.00,Sunday
2232,0.0
2233,0.0
5265,8111.202482247805
2,7,10, 7, 0, 2, 0.00,60.00,Sunday
2232,0.0
2233,0.0
5265,8090.155648342062
2,7,10, 7, 0, 3, 0.00,60.00,Sunday
2232,0.0
2233,0.0
5265,8062.37310243419
2,7,10, 7, 0, 4, 0.00,60.00,Sunday
2232,0.0
2233,0.0
5265,8018.734225066746
2,7,10, 7, 0, 5, 0.00,60.00,Sunday
2232,0.0
2233,0.0
5265,7971.564423304116
2,7,10, 7, 0, 6, 0.00,60.00,Sunday
2232,7.6677833404593349
2233,4.838781411733643
5265,7952.251588246166
2,7,10, 7, 0, 7, 0.00,60.00,Sunday
2232,48.58701458288285
2233,30.77026733269854
5265,7997.518313342406
2,7,10, 7, 0, 8, 0.00,60.00,Sunday
2232,103.41792095108942
2233,64.13756582017212
5265,8085.846554862585
2,7,10, 7, 0, 9, 0.00,60.00,Sunday
2232,137.5093276625174
2233,85.90330842823858
5265,8193.984124693228
2,7,10, 7, 0,10, 0.00,60.00,Sunday
2232,143.85612091539779
2233,91.93225533008219
5265,8297.56981592204
2,7,10, 7, 0,11, 0.00,60.00,Sunday
2232,135.93473060533379
2233,89.10816578314695
5265,8360.658693805277
2,7,10, 7, 0,12, 0.00,60.00,Sunday
2232,126.71843628159775
2233,83.9308159639391
5265,8362.419651984199
2,7,10, 7, 0,13, 0.00,60.00,Sunday
2232,123.51840447515379
2233,80.96315119376848
5265,8302.59724577555
2,7,10, 7, 0,14, 0.00,60.00,Sunday
2232,118.69760790979699
2233,75.90176391721164
5265,8241.296296139868
2,7,10, 7, 0,15, 0.00,60.00,Sunday
2232,110.64058726233621
2233,69.21974331602246
5265,8225.907498645138
2,7,10, 7, 0,16, 0.00,60.00,Sunday
2232,82.65743702657793
2233,51.321926218627989
5265,8280.416538718475
2,7,10, 7, 0,17, 0.00,60.00,Sunday
2232,41.80110282371049
2233,25.813851966225657
5265,8343.284995973807
2,7,10, 7, 0,18, 0.00,60.00,Sunday
2232,4.295401812608353
2233,2.617754347861064
5265,8378.32262599058
2,7,10, 7, 0,19, 0.00,60.00,Sunday
2232,0.0
2233,0.0
5265,8344.888557940634
2,7,10, 7, 0,20, 0.00,60.00,Sunday
2232,0.0
2233,0.0
5265,8290.82378337969
2,7,10, 7, 0,21, 0.00,60.00,Sunday
2232,0.0
2233,0.0
5265,8239.39428167459
2,7,10, 7, 0,22, 0.00,60.00,Sunday
2232,0.0
2233,0.0
5265,8180.910664430896
2,7,10, 7, 0,23, 0.00,60.00,Sunday
2232,0.0
2233,0.0
5265,8115.165312058459
2,7,10, 7, 0,24, 0.00,60.00,Sunday
2232,0.0
2233,0.0
5265,8071.751144707306
2,8,10, 8, 0, 1, 0.00,60.00,Monday
2232,0.0
2233,0.0
5265,7698.376667773341
2,8,10, 8, 0, 2, 0.00,60.00,Monday
2232,0.0
2233,0.0
5265,7742.621717960744
2,8,10, 8, 0, 3, 0.00,60.00,Monday
2232,0.0
2233,0.0
5265,7689.925948879467
2,8,10, 8, 0, 4, 0.00,60.00,Monday
2232,0.0
2233,0.0
5265,7615.853338119475
2,8,10, 8, 0, 5, 0.00,60.00,Monday
2232,0.0
2233,0.0
5265,7548.412174881789
2,8,10, 8, 0, 6, 0.00,60.00,Monday
2232,8.153878864979293
2233,5.132116331732962
5265,7495.091409304536
2,8,10, 8, 0, 7, 0.00,60.00,Monday
2232,49.26121875694805
2233,31.208935881033708
5265,7471.492238146036
2,8,10, 8, 0, 8, 0.00,60.00,Monday
2232,96.83770236302463
2233,60.070143442523058
5265,29274.053845859173
2,8,10, 8, 0, 9, 0.00,60.00,Monday
2232,134.7485366327401
2233,84.20704429741726
5265,60329.55862856596
2,8,10, 8, 0,10, 0.00,60.00,Monday
2232,144.44881421200524
2233,92.31194301767256
5265,88209.76860122707
2,8,10, 8, 0,11, 0.00,60.00,Monday
2232,138.42575198305887
2233,90.79738907381142
5265,90382.80833215238
2,8,10, 8, 0,12, 0.00,60.00,Monday
2232,127.73488273271822
2233,84.6289536922153
5265,129638.87493534725
2,8,10, 8, 0,13, 0.00,60.00,Monday
2232,117.8590668864274
2233,77.27269765731359
5265,132296.78843596718
2,8,10, 8, 0,14, 0.00,60.00,Monday
2232,102.74415487348235
2233,66.01152409715398
5265,165472.909355166
2,8,10, 8, 0,15, 0.00,60.00,Monday
2232,85.24662410829447
2233,53.75047370950109
5265,174776.83976231016
2,8,10, 8, 0,16, 0.00,60.00,Monday
2232,59.888914395590088
2233,37.50698864589892
5265,156130.41335377153
2,8,10, 8, 0,17, 0.00,60.00,Monday
2232,28.50910656681695
2233,18.029843907098635
5265,135066.12095610635
2,8,10, 8, 0,18, 0.00,60.00,Monday
2232,2.960699005915648
2233,1.864450653501783
5265,52367.77156877942
2,8,10, 8, 0,19, 0.00,60.00,Monday
2232,0.0
2233,0.0
5265,25739.4679833514
2,8,10, 8, 0,20, 0.00,60.00,Monday
2232,0.0
2233,0.0
5265,10855.946360711298
2,8,10, 8, 0,21, 0.00,60.00,Monday
2232,0.0
2233,0.0
5265,8427.067171104942
2,8,10, 8, 0,22, 0.00,60.00,Monday
2232,0.0
2233,0.0
5265,7978.519323328625
2,8,10, 8, 0,23, 0.00,60.00,Monday
2232,0.0
2233,0.0
5265,7942.427727076604
2,8,10, 8, 0,24, 0.00,60.00,Monday
2232,0.0
2233,0.0
5265,7914.250342202453
2,9,10, 9, 0, 1, 0.00,60.00,Tuesday
2232,0.0
2233,0.0
5265,7118.495555056973
2,9,10, 9, 0, 2, 0.00,60.00,Tuesday
2232,0.0
2233,0.0
5265,7207.281565435503
2,9,10, 9, 0, 3, 0.00,60.00,Tuesday
2232,0.0
2233,0.0
5265,7154.349535514295
2,9,10, 9, 0, 4, 0.00,60.00,Tuesday
2232,0.0
2233,0.0
5265,7080.629733334416
2,9,10, 9, 0, 5, 0.00,60.00,Tuesday
2232,0.0
2233,0.0
5265,7002.569997388203
2,9,10, 9, 0, 6, 0.00,60.00,Tuesday
2232,15.228905820697273
2233,8.381210072838007
5265,7130.039205391812
2,9,10, 9, 0, 7, 0.00,60.00,Tuesday
2232,88.83973014743988
2233,53.458848946371407
5265,7518.739944541361
2,9,10, 9, 0, 8, 0.00,60.00,Tuesday
2232,158.97037198619976
2233,95.67161627621583
5265,20821.88286234628
2,9,10, 9, 0, 9, 0.00,60.00,Tuesday
2232,190.6098190926787
2233,116.6997473083755
5265,73580.27454968059
2,9,10, 9, 0,10, 0.00,60.00,Tuesday
2232,182.20133789078055
2233,114.79658123898715
5265,105802.16524354521
2,9,10, 9, 0,11, 0.00,60.00,Tuesday
2232,154.49782534026174
2233,100.91710843527074
5265,114569.86337199506
2,9,10, 9, 0,12, 0.00,60.00,Tuesday
2232,137.7873908043283
2233,91.85835462798126
5265,152515.74335141525
2,9,10, 9, 0,13, 0.00,60.00,Tuesday
2232,143.384686597337
2233,93.89028357499035
5265,144409.74563089107
2,9,10, 9, 0,14, 0.00,60.00,Tuesday
2232,150.9785136066284
2233,95.41234184018475
5265,168095.51463243963
2,9,10, 9, 0,15, 0.00,60.00,Tuesday
2232,131.3438669150414
2233,80.79225597001848
5265,147038.68868657424
2,9,10, 9, 0,16, 0.00,60.00,Tuesday
2232,87.41789524501927
2233,53.923328981670447
5265,149418.42702746197
2,9,10, 9, 0,17, 0.00,60.00,Tuesday
2232,35.43427704168967
2233,22.171214281285473
5265,125277.24251466495
2,9,10, 9, 0,18, 0.00,60.00,Tuesday
2232,3.3547586403436648
2233,2.0917632117375866
5265,111272.44913226261
2,9,10, 9, 0,19, 0.00,60.00,Tuesday
2232,0.0
2233,0.0
5265,66334.83006347544
2,9,10, 9, 0,20, 0.00,60.00,Tuesday
2232,0.0
2233,0.0
5265,32261.00407953699
2,9,10, 9, 0,21, 0.00,60.00,Tuesday
2232,0.0
2233,0.0
5265,8657.365337249343
2,9,10, 9, 0,22, 0.00,60.00,Tuesday
2232,0.0
2233,0.0
5265,8393.891789855055
2,9,10, 9, 0,23, 0.00,60.00,Tuesday
2232,0.0
2233,0.0
5265,8303.11011072275
2,9,10, 9, 0,24, 0.00,60.00,Tuesday
2232,0.0
2233,0.0
5265,8257.114984990514
2,10,10,10, 0, 1, 0.00,60.00,Wednesday
2232,0.0
2233,0.0
5265,8227.520130876934
2,10,10,10, 0, 2, 0.00,60.00,Wednesday
2232,0.0
2233,0.0
5265,8202.301203417288
2,10,10,10, 0, 3, 0.00,60.00,Wednesday
2232,0.0
2233,0.0
5265,8173.120012358976
2,10,10,10, 0, 4, 0.00,60.00,Wednesday
2232,0.0
2233,0.0
5265,8123.695856437897
2,10,10,10, 0, 5, 0.00,60.00,Wednesday
2232,0.0
2233,0.0
5265,8004.223856137913
2,10,10,10, 0, 6, 0.00,60.00,Wednesday
2232,8.4238475202884
2233,5.290503628241438
5265,8025.32163806337
2,10,10,10, 0, 7, 0.00,60.00,Wednesday
2232,50.022774354080649
2233,31.65204394128277
5265,8193.973597584341
2,10,10,10, 0, 8, 0.00,60.00,Wednesday
2232,95.06220882480182
2233,58.89643925618149
5265,25395.92305440037
2,10,10,10, 0, 9, 0.00,60.00,Wednesday
2232,144.17845872233009
2233,90.01578672921859
5265,80937.03948565091
2,10,10,10, 0,10, 0.00,60.00,Wednesday
2232,154.8415282510084
2233,98.92787747061846
5265,113535.66595216735
2,10,10,10, 0,11, 0.00,60.00,Wednesday
2232,141.53676209376455
2233,93.01230131421555
5265,135568.48255048824
2,10,10,10, 0,12, 0.00,60.00,Wednesday
2232,118.6420552341881
2233,79.39138539114633
5265,171797.0015835306
2,10,10,10, 0,13, 0.00,60.00,Wednesday
2232,134.81512460740724
2233,88.24776482429452
5265,172075.3852376791
2,10,10,10, 0,14, 0.00,60.00,Wednesday
2232,148.33412773476827
2233,93.65227325627864
5265,172349.08140390129
2,10,10,10, 0,15, 0.00,60.00,Wednesday
2232,143.124432433387
2233,87.82552276392936
5265,178722.44441488773
2,10,10,10, 0,16, 0.00,60.00,Wednesday
2232,110.29150243744238
2233,66.68788600817843
5265,144704.32387494669
2,10,10,10, 0,17, 0.00,60.00,Wednesday
2232,56.6476555672888
2233,33.85736916576831
5265,83126.94133805315
2,10,10,10, 0,18, 0.00,60.00,Wednesday
2232,5.9730807882912659
2233,3.465995908742793
5265,52928.220861403686
2,10,10,10, 0,19, 0.00,60.00,Wednesday
2232,0.0
2233,0.0
5265,23332.621091336565
2,10,10,10, 0,20, 0.00,60.00,Wednesday
2232,0.0
2233,0.0
5265,9363.135168454479
2,10,10,10, 0,21, 0.00,60.00,Wednesday
2232,0.0
2233,0.0
5265,8906.097268901556
2,10,10,10, 0,22, 0.00,60.00,Wednesday
2232,0.0
2233,0.0
5265,8461.424292333237
2,10,10,10, 0,23, 0.00,60.00,Wednesday
2232,0.0
2233,0.0
5265,8429.75455117574
2,10,10,10, 0,24, 0.00,60.00,Wednesday
2232,0.0
2233,0.0
5265,8392.421807566958
2,11,10,11, 0, 1, 0.00,60.00,Thursday
2232,0.0
2233,0.0
5265,8341.804300886108
2,11,10,11, 0, 2, 0.00,60.00,Thursday
2232,0.0
2233,0.0
5265,8281.248006173311
2,11,10,11, 0, 3, 0.00,60.00,Thursday
2232,0.0
2233,0.0
5265,8241.326451603132
2,11,10,11, 0, 4, 0.00,60.00,Thursday
2232,0.0
2233,0.0
5265,8214.779396360484
2,11,10,11, 0, 5, 0.00,60.00,Thursday
2232,0.0
2233,0.0
5265,8188.431172257285
2,11,10,11, 0, 6, 0.00,60.00,Thursday
2232,9.394538335580024
2233,5.852193733000047
5265,8210.104326549166
2,11,10,11, 0, 7, 0.00,60.00,Thursday
2232,56.71254972117428
2233,35.79330926971406
5265,8316.259039214901
2,11,10,11, 0, 8, 0.00,60.00,Thursday
2232,107.44070511845648
2233,66.5989822104015
5265,23841.304298915366
2,11,10,11, 0, 9, 0.00,60.00,Thursday
2232,138.85566697633028
2233,86.71086847569932
5265,114294.39010982959
2,11,10,11, 0,10, 0.00,60.00,Thursday
2232,144.69082561006017
2233,92.4445731066517
5265,148732.71421859673
2,11,10,11, 0,11, 0.00,60.00,Thursday
2232,138.9588489270033
2233,91.11688699713989
5265,167397.05805223264
2,11,10,11, 0,12, 0.00,60.00,Thursday
2232,135.24318438423365
2233,89.79675124649144
5265,169387.46940710888
2,11,10,11, 0,13, 0.00,60.00,Thursday
2232,134.63871687673609
2233,88.44849865618225
5265,172179.06898911837
2,11,10,11, 0,14, 0.00,60.00,Thursday
2232,133.3322201036198
2233,85.09030010952418
5265,184378.43612080735
2,11,10,11, 0,15, 0.00,60.00,Thursday
2232,119.27960086047773
2233,74.51286531975936
5265,180287.19520647356
2,11,10,11, 0,16, 0.00,60.00,Thursday
2232,85.34121732349824
2233,52.777718681218058
5265,181889.17237612629
2,11,10,11, 0,17, 0.00,60.00,Thursday
2232,40.919920018519658
2233,25.19914919936707
5265,168316.49390294867
2,11,10,11, 0,18, 0.00,60.00,Thursday
2232,4.177195368483445
2233,2.540280445017077
5265,88468.09575751437
2,11,10,11, 0,19, 0.00,60.00,Thursday
2232,0.0
2233,0.0
5265,63635.61657467206
2,11,10,11, 0,20, 0.00,60.00,Thursday
2232,0.0
2233,0.0
5265,45701.25363686597
2,11,10,11, 0,21, 0.00,60.00,Thursday
2232,0.0
2233,0.0
5265,8466.666047906043
2,11,10,11, 0,22, 0.00,60.00,Thursday
2232,0.0
2233,0.0
5265,8421.903071748247
2,11,10,11, 0,23, 0.00,60.00,Thursday
2232,0.0
2233,0.0
5265,8379.96448065601
2,11,10,11, 0,24, 0.00,60.00,Thursday
2232,0.0
2233,0.0
5265,8333.445606882622
2,12,10,12, 0, 1, 0.00,60.00,Friday
2232,0.0
2233,0.0
5265,8261.998467784719
2,12,10,12, 0, 2, 0.00,60.00,Friday
2232,0.0
2233,0.0
5265,8183.592451689925
2,12,10,12, 0, 3, 0.00,60.00,Friday
2232,0.0
2233,0.0
5265,8149.8225089277
2,12,10,12, 0, 4, 0.00,60.00,Friday
2232,0.0
2233,0.0
5265,8186.35427347048
2,12,10,12, 0, 5, 0.00,60.00,Friday
2232,0.0
2233,0.0
5265,8223.872679040307
2,12,10,12, 0, 6, 0.00,60.00,Friday
2232,8.951833828839775
2233,5.600392947348742
5265,8258.686432764758
2,12,10,12, 0, 7, 0.00,60.00,Friday
2232,55.560797289898399
2233,35.07209990309418
5265,8329.008309524916
2,12,10,12, 0, 8, 0.00,60.00,Friday
2232,109.62263299281784
2233,67.98445616895094
5265,29218.277632498546
2,12,10,12, 0, 9, 0.00,60.00,Friday
2232,142.8330079938158
2233,89.16887644179309
5265,91784.92754309079
2,12,10,12, 0,10, 0.00,60.00,Friday
2232,148.15551435814909
2233,94.63270528043684
5265,150581.45620920845
2,12,10,12, 0,11, 0.00,60.00,Friday
2232,140.0947567876717
2233,91.89705560008412
5265,148979.12796781734
2,12,10,12, 0,12, 0.00,60.00,Friday
2232,132.95522840765538
2233,88.21426628829166
5265,151816.20811391003
2,12,10,12, 0,13, 0.00,60.00,Friday
2232,129.47881930597974
2233,84.93901374756159
5265,161173.2083014819
2,12,10,12, 0,14, 0.00,60.00,Friday
2232,126.20959863163874
2233,80.67797142000643
5265,168559.49395646447
2,12,10,12, 0,15, 0.00,60.00,Friday
2232,112.84816136871973
2233,70.54323068952867
5265,148748.75703896106
2,12,10,12, 0,16, 0.00,60.00,Friday
2232,82.15997066452101
2233,50.97242314131705
5265,131572.9648168677
2,12,10,12, 0,17, 0.00,60.00,Friday
2232,38.48815772254924
2233,23.825629293389637
5265,122015.85385035417
2,12,10,12, 0,18, 0.00,60.00,Friday
2232,3.8371550839264176
2233,2.350523634527391
5265,56021.64856766024
2,12,10,12, 0,19, 0.00,60.00,Friday
2232,0.0
2233,0.0
5265,29686.72647204244
2,12,10,12, 0,20, 0.00,60.00,Friday
2232,0.0
2233,0.0
5265,18672.198826466443
2,12,10,12, 0,21, 0.00,60.00,Friday
2232,0.0
2233,0.0
5265,13465.181014624715
2,12,10,12, 0,22, 0.00,60.00,Friday
2232,0.0
2233,0.0
5265,8281.713703951324
2,12,10,12, 0,23, 0.00,60.00,Friday
2232,0.0
2233,0.0
5265,8184.047521500495
2,12,10,12, 0,24, 0.00,60.00,Friday
2232,0.0
2233,0.0
5265,8116.356621736838
2,13,10,13, 0, 1, 0.00,60.00,Saturday
2232,0.0
2233,0.0
5265,8106.180895712106
2,13,10,13, 0, 2, 0.00,60.00,Saturday
2232,0.0
2233,0.0
5265,8109.302913806266
2,13,10,13, 0, 3, 0.00,60.00,Saturday
2232,0.0
2233,0.0
5265,8112.384528282621
2,13,10,13, 0, 4, 0.00,60.00,Saturday
2232,0.0
2233,0.0
5265,8106.488888246743
2,13,10,13, 0, 5, 0.00,60.00,Saturday
2232,0.0
2233,0.0
5265,8100.743542255955
2,13,10,13, 0, 6, 0.00,60.00,Saturday
2232,9.379555131043258
2233,5.844279425118906
5265,8130.514315456966
2,13,10,13, 0, 7, 0.00,60.00,Saturday
2232,56.55313027401839
2233,35.69959787320158
5265,8239.375064396074
2,13,10,13, 0, 8, 0.00,60.00,Saturday
2232,107.50231162952629
2233,66.64628943833522
5265,8384.500569184725
2,13,10,13, 0, 9, 0.00,60.00,Saturday
2232,142.3379937413437
2233,88.8620309813817
5265,58306.22498839366
2,13,10,13, 0,10, 0.00,60.00,Saturday
2232,149.17691254875113
2233,95.28097472169906
5265,82807.54528308769
2,13,10,13, 0,11, 0.00,60.00,Saturday
2232,141.01545388971705
2233,92.52213670747581
5265,93784.4908512116
2,13,10,13, 0,12, 0.00,60.00,Saturday
2232,134.42652934056555
2233,89.28633356166779
5265,84307.9190016538
2,13,10,13, 0,13, 0.00,60.00,Saturday
2232,132.54142109747543
2233,87.03026672400149
5265,63975.160739196384
2,13,10,13, 0,14, 0.00,60.00,Saturday
2232,131.20245783375666
2233,83.86885334060682
5265,57377.87405625854
2,13,10,13, 0,15, 0.00,60.00,Saturday
2232,117.00740364725353
2233,73.10111686546114
5265,57454.42608125165
2,13,10,13, 0,16, 0.00,60.00,Saturday
2232,85.08691390549699
2233,52.561507156117638
5265,51700.89549890637
2,13,10,13, 0,17, 0.00,60.00,Saturday
2232,39.688861722031429
2233,24.468766504217127
5265,42132.832363907524
2,13,10,13, 0,18, 0.00,60.00,Saturday
2232,3.9511553271569115
2233,2.404687627551997
5265,36011.12878871522
2,13,10,13, 0,19, 0.00,60.00,Saturday
2232,0.0
2233,0.0
5265,28637.980488356585
2,13,10,13, 0,20, 0.00,60.00,Saturday
2232,0.0
2233,0.0
5265,12608.786766737308
2,13,10,13, 0,21, 0.00,60.00,Saturday
2232,0.0
2233,0.0
5265,12456.051674440028
2,13,10,13, 0,22, 0.00,60.00,Saturday
2232,0.0
2233,0.0
5265,8686.196754520204
2,13,10,13, 0,23, 0.00,60.00,Saturday
2232,0.0
2233,0.0
5265,8439.505433815648
2,13,10,13, 0,24, 0.00,60.00,Saturday
2232,0.0
2233,0.0
5265,8351.921465377594