Program Version,EnergyPlus, Version 8.7.0-78a111df4a, YMD=2019.12.26 10:28
1,5,Environment Title[],Latitude[deg],Longitude[deg],Time Zone[],Elevation[m]
2,6,Day of Simulation[],Month[],Day of Month[],DST Indicator[1=yes 0=no],Hour[],StartMinute[],EndMinute[],DayType
3,3,Cumulative Day of Simulation[],Month[],Day of Month[],DST Indicator[1=yes 0=no],DayType  ! When Daily Report Variables Requested
4,2,Cumulative Days of Simulation[],Month[]  ! When Monthly Report Variables Requested
5,1,Cumulative Days of Simulation[] ! When Run Period Report Variables Requested
2232,1,AF305DAYLIGHINGCONTROL,Daylighting Reference Point 1 Illuminance [lux] !Hourly
2233,1,AF305DAYLIGHINGCONTROL,Daylighting Reference Point 2 Illuminance [lux] !Hourly
5265,1,Whole Building,Facility Total Electric Demand Power [W] !Hourly
End of Data Dictionary
1,RUNPERIOD,  10.30, 123.97,   8.00,  24.00
2,1,10, 1, 0, 1, 0.00,60.00,Monday
2232,0.0
2233,0.0
5265,7959.2340340260525
2,1,10, 1, 0, 2, 0.00,60.00,Monday
2232,0.0
2233,0.0
5265,7873.480624506763
2,1,10, 1, 0, 3, 0.00,60.00,Monday
2232,0.0
2233,0.0
5265,7736.39281216278
2,1,10, 1, 0, 4, 0.00,60.00,Monday
2232,0.0
2233,0.0
5265,7669.686931190198
2,1,10, 1, 0, 5, 0.00,60.00,Monday
2232,0.0
2233,0.0
5265,7605.573975803229
2,1,10, 1, 0, 6, 0.00,60.00,Monday
2232,89.60154612283566
2233,46.326844404723519
5265,7665.214675931843
2,1,10, 1, 0, 7, 0.00,60.00,Monday
2232,468.12279491158378
2233,275.0784107962954
5265,7801.817526176565
2,1,10, 1, 0, 8, 0.00,60.00,Monday
2232,750.981064770435
2233,449.8459424168174
5265,29701.938650045155
2,1,10, 1, 0, 9, 0.00,60.00,Monday
2232,873.4578563947786
2233,536.7019599312517
5265,61848.50338016476
2,1,10, 1, 0,10, 0.00,60.00,Monday
2232,832.6344452596827
2233,527.868788522196
5265,96199.4211061483
2,1,10, 1, 0,11, 0.00,60.00,Monday
2232,702.9984611078934
2233,462.11274316203488
5265,97931.51885578752
2,1,10, 1, 0,12, 0.00,60.00,Monday
2232,578.1772162510692
2233,388.6448965600044
5265,141604.59820598065
2,1,10, 1, 0,13, 0.00,60.00,Monday
2232,597.5798703579379
2233,395.23093569133149
5265,145039.4042143056
2,1,10, 1, 0,14, 0.00,60.00,Monday
2232,593.6053713686687
2233,381.8688097928736
5265,170319.78647607968
2,1,10, 1, 0,15, 0.00,60.00,Monday
2232,477.1662044348944
2233,300.55683643210485
5265,177555.71170813536
2,1,10, 1, 0,16, 0.00,60.00,Monday
2232,313.20682646228809
2233,196.49907380966673
5265,158697.68371688625
2,1,10, 1, 0,17, 0.00,60.00,Monday
2232,124.74418307903233
2233,79.46914173082998
5265,137192.77380015577
2,1,10, 1, 0,18, 0.00,60.00,Monday
2232,14.153116530130954
2233,9.01926277956562
5265,52784.818975842885
2,1,10, 1, 0,19, 0.00,60.00,Monday
2232,0.0
2233,0.0
5265,25999.083045837124
2,1,10, 1, 0,20, 0.00,60.00,Monday
2232,0.0
2233,0.0
5265,10994.476428200645
2,1,10, 1, 0,21, 0.00,60.00,Monday
2232,0.0
2233,0.0
5265,8577.795462242471
2,1,10, 1, 0,22, 0.00,60.00,Monday
2232,0.0
2233,0.0
5265,8150.562530488366
2,1,10, 1, 0,23, 0.00,60.00,Monday
2232,0.0
2233,0.0
5265,8136.888514586783
2,1,10, 1, 0,24, 0.00,60.00,Monday
2232,0.0
2233,0.0
5265,8119.398837225795
2,2,10, 2, 0, 1, 0.00,60.00,Tuesday
2232,0.0
2233,0.0
5265,7867.88330061716
2,2,10, 2, 0, 2, 0.00,60.00,Tuesday
2232,0.0
2233,0.0
5265,7777.1476081734
2,2,10, 2, 0, 3, 0.00,60.00,Tuesday
2232,0.0
2233,0.0
5265,7667.301407217766
2,2,10, 2, 0, 4, 0.00,60.00,Tuesday
2232,0.0
2233,0.0
5265,7551.190045651364
2,2,10, 2, 0, 5, 0.00,60.00,Tuesday
2232,0.0
2233,0.0
5265,7424.286700321288
2,2,10, 2, 0, 6, 0.00,60.00,Tuesday
2232,91.8670943233363
2233,47.2348642993935
5265,7536.338552744021
2,2,10, 2, 0, 7, 0.00,60.00,Tuesday
2232,484.9411392333145
2233,282.2181983380602
5265,7972.732579801817
2,2,10, 2, 0, 8, 0.00,60.00,Tuesday
2232,788.071919079039
2233,466.8476359506901
5265,21084.495961413428
2,2,10, 2, 0, 9, 0.00,60.00,Tuesday
2232,901.5951996495136
2233,552.2336140015412
5265,82346.46017097096
2,2,10, 2, 0,10, 0.00,60.00,Tuesday
2232,849.0936709143683
2233,537.5614274381629
5265,115205.90929378009
2,2,10, 2, 0,11, 0.00,60.00,Tuesday
2232,682.1544534535548
2233,448.4429678821062
5265,120925.85725725773
2,2,10, 2, 0,12, 0.00,60.00,Tuesday
2232,598.4653201033367
2233,401.38410418752718
5265,151738.6328218753
2,2,10, 2, 0,13, 0.00,60.00,Tuesday
2232,597.9413239111958
2233,394.6760486351882
5265,136588.60570392037
2,2,10, 2, 0,14, 0.00,60.00,Tuesday
2232,522.6562922002871
2233,336.6217084037859
5265,154141.4796466276
2,2,10, 2, 0,15, 0.00,60.00,Tuesday
2232,445.0784004234503
2233,280.89054631896229
5265,130313.27310140715
2,2,10, 2, 0,16, 0.00,60.00,Tuesday
2232,314.375392198377
2233,197.1600344419421
5265,135051.86132021555
2,2,10, 2, 0,17, 0.00,60.00,Tuesday
2232,157.49276614460903
2233,99.84787712836465
5265,110847.06050792294
2,2,10, 2, 0,18, 0.00,60.00,Tuesday
2232,17.849366984768129
2233,11.2662568173197
5265,109441.19910545259
2,2,10, 2, 0,19, 0.00,60.00,Tuesday
2232,0.0
2233,0.0
5265,64249.07299808992
2,2,10, 2, 0,20, 0.00,60.00,Tuesday
2232,0.0
2233,0.0
5265,31286.681564760223
2,2,10, 2, 0,21, 0.00,60.00,Tuesday
2232,0.0
2233,0.0
5265,8632.09762611168
2,2,10, 2, 0,22, 0.00,60.00,Tuesday
2232,0.0
2233,0.0
5265,8386.152243243805
2,2,10, 2, 0,23, 0.00,60.00,Tuesday
2232,0.0
2233,0.0
5265,8335.026467204432
2,2,10, 2, 0,24, 0.00,60.00,Tuesday
2232,0.0
2233,0.0
5265,8295.401821224472
2,3,10, 3, 0, 1, 0.00,60.00,Wednesday
2232,0.0
2233,0.0
5265,8218.903132084177
2,3,10, 3, 0, 2, 0.00,60.00,Wednesday
2232,0.0
2233,0.0
5265,8121.950194455774
2,3,10, 3, 0, 3, 0.00,60.00,Wednesday
2232,0.0
2233,0.0
5265,7992.122818873356
2,3,10, 3, 0, 4, 0.00,60.00,Wednesday
2232,0.0
2233,0.0
5265,7928.509336255766
2,3,10, 3, 0, 5, 0.00,60.00,Wednesday
2232,0.0
2233,0.0
5265,7856.33672454124
2,3,10, 3, 0, 6, 0.00,60.00,Wednesday
2232,37.47489475869812
2233,23.69846536864902
5265,7897.641580376349
2,3,10, 3, 0, 7, 0.00,60.00,Wednesday
2232,232.02673376461903
2233,147.65067743768274
5265,8081.325108747825
2,3,10, 3, 0, 8, 0.00,60.00,Wednesday
2232,482.7401806164375
2233,301.10917502437357
5265,25186.20994524461
2,3,10, 3, 0, 9, 0.00,60.00,Wednesday
2232,682.3419232051999
2233,428.5903289522177
5265,75691.05439934705
2,3,10, 3, 0,10, 0.00,60.00,Wednesday
2232,712.8390888553895
2233,458.0445913100661
5265,112756.83673532901
2,3,10, 3, 0,11, 0.00,60.00,Wednesday
2232,662.4427012926222
2233,437.32374286403117
5265,133384.7950868719
2,3,10, 3, 0,12, 0.00,60.00,Wednesday
2232,602.1246579682896
2233,401.4387772764995
5265,164777.6926580811
2,3,10, 3, 0,13, 0.00,60.00,Wednesday
2232,539.9581385997022
2233,356.0645310762147
5265,155796.17790812409
2,3,10, 3, 0,14, 0.00,60.00,Wednesday
2232,483.8500679004824
2233,312.4898625848678
5265,152865.20237996189
2,3,10, 3, 0,15, 0.00,60.00,Wednesday
2232,460.99092630450886
2233,290.67808478396736
5265,158308.407822009
2,3,10, 3, 0,16, 0.00,60.00,Wednesday
2232,373.6353373547385
2233,233.6764874719099
5265,123409.38186705993
2,3,10, 3, 0,17, 0.00,60.00,Wednesday
2232,198.17658485321818
2233,123.2410984975997
5265,68402.49240324398
2,3,10, 3, 0,18, 0.00,60.00,Wednesday
2232,23.950800857303148
2233,14.628447644815957
5265,52188.31736217005
2,3,10, 3, 0,19, 0.00,60.00,Wednesday
2232,0.0
2233,0.0
5265,22663.04861548352
2,3,10, 3, 0,20, 0.00,60.00,Wednesday
2232,0.0
2233,0.0
5265,9042.397569858804
2,3,10, 3, 0,21, 0.00,60.00,Wednesday
2232,0.0
2233,0.0
5265,8519.656976130174
2,3,10, 3, 0,22, 0.00,60.00,Wednesday
2232,0.0
2233,0.0
5265,8099.8497191630195
2,3,10, 3, 0,23, 0.00,60.00,Wednesday
2232,0.0
2233,0.0
5265,8126.1669229825975
2,3,10, 3, 0,24, 0.00,60.00,Wednesday
2232,0.0
2233,0.0
5265,8123.567146775113
2,4,10, 4, 0, 1, 0.00,60.00,Thursday
2232,0.0
2233,0.0
5265,8059.445665957645
2,4,10, 4, 0, 2, 0.00,60.00,Thursday
2232,0.0
2233,0.0
5265,7984.257691591555
2,4,10, 4, 0, 3, 0.00,60.00,Thursday
2232,0.0
2233,0.0
5265,7923.5749176475265
2,4,10, 4, 0, 4, 0.00,60.00,Thursday
2232,0.0
2233,0.0
5265,7908.460090768509
2,4,10, 4, 0, 5, 0.00,60.00,Thursday
2232,0.0
2233,0.0
5265,7906.542687718092
2,4,10, 4, 0, 6, 0.00,60.00,Thursday
2232,46.224831022871779
2233,28.75890068452672
5265,7928.626864506714
2,4,10, 4, 0, 7, 0.00,60.00,Thursday
2232,286.7716695673218
2233,181.7950476518607
5265,8000.300629276187
2,4,10, 4, 0, 8, 0.00,60.00,Thursday
2232,568.5732831915088
2233,352.79996633384516
5265,22699.031137020433
2,4,10, 4, 0, 9, 0.00,60.00,Thursday
2232,703.4563468489133
2233,441.53760146060616
5265,96257.91241464978
2,4,10, 4, 0,10, 0.00,60.00,Thursday
2232,711.8245501089186
2233,457.52910521657329
5265,132089.24011030093
2,4,10, 4, 0,11, 0.00,60.00,Thursday
2232,659.482710772328
2233,435.40785972141949
5265,157431.61746292434
2,4,10, 4, 0,12, 0.00,60.00,Thursday
2232,621.7094247280875
2233,415.16056247368626
5265,161777.51493185306
2,4,10, 4, 0,13, 0.00,60.00,Thursday
2232,606.7157246175556
2233,400.4416209454818
5265,164405.51673091143
2,4,10, 4, 0,14, 0.00,60.00,Thursday
2232,590.3362707249036
2233,379.58843662400298
5265,176301.92105801966
2,4,10, 4, 0,15, 0.00,60.00,Thursday
2232,550.6597932138753
2233,346.1184197345267
5265,165850.3763181376
2,4,10, 4, 0,16, 0.00,60.00,Thursday
2232,417.450358676862
2233,258.8140915010104
5265,172087.54407643205
2,4,10, 4, 0,17, 0.00,60.00,Thursday
2232,215.06943741168497
2233,132.45425194580566
5265,160268.97059719734
2,4,10, 4, 0,18, 0.00,60.00,Thursday
2232,28.3389016027369
2233,17.06721153478696
5265,87294.9234797348
2,4,10, 4, 0,19, 0.00,60.00,Thursday
2232,0.0
2233,0.0
5265,62345.287996808205
2,4,10, 4, 0,20, 0.00,60.00,Thursday
2232,0.0
2233,0.0
5265,44474.35702236674
2,4,10, 4, 0,21, 0.00,60.00,Thursday
2232,0.0
2233,0.0
5265,8248.84657985771
2,4,10, 4, 0,22, 0.00,60.00,Thursday
2232,0.0
2233,0.0
5265,8236.80356546019
2,4,10, 4, 0,23, 0.00,60.00,Thursday
2232,0.0
2233,0.0
5265,8234.014732438978
2,4,10, 4, 0,24, 0.00,60.00,Thursday
2232,0.0
2233,0.0
5265,8190.4897343301345
2,5,10, 5, 0, 1, 0.00,60.00,Friday
2232,0.0
2233,0.0
5265,8093.750169465643
2,5,10, 5, 0, 2, 0.00,60.00,Friday
2232,0.0
2233,0.0
5265,7994.786715674317
2,5,10, 5, 0, 3, 0.00,60.00,Friday
2232,0.0
2233,0.0
5265,7930.291689937293
2,5,10, 5, 0, 4, 0.00,60.00,Friday
2232,0.0
2233,0.0
5265,7913.813525734309
2,5,10, 5, 0, 5, 0.00,60.00,Friday
2232,0.0
2233,0.0
5265,7905.567625255771
2,5,10, 5, 0, 6, 0.00,60.00,Friday
2232,69.20415439177488
2233,38.40289147833841
5265,7921.5474519447935
2,5,10, 5, 0, 7, 0.00,60.00,Friday
2232,385.3087724366605
2233,235.43202256762747
5265,7979.774875078184
2,5,10, 5, 0, 8, 0.00,60.00,Friday
2232,614.2500630972206
2233,378.95998268108726
5265,28011.262216850588
2,5,10, 5, 0, 9, 0.00,60.00,Friday
2232,724.9870934248502
2233,453.27776114433439
5265,70132.30282244759
2,5,10, 5, 0,10, 0.00,60.00,Friday
2232,702.6274197453164
2233,451.53938374264569
5265,137496.24180194635
2,5,10, 5, 0,11, 0.00,60.00,Friday
2232,648.9127508861253
2233,428.39676209366209
5265,136026.0033845743
2,5,10, 5, 0,12, 0.00,60.00,Friday
2232,590.3995578405693
2233,396.2239242155222
5265,142402.1523569268
2,5,10, 5, 0,13, 0.00,60.00,Friday
2232,618.2274110853175
2233,407.1581558102657
5265,156211.40937801582
2,5,10, 5, 0,14, 0.00,60.00,Friday
2232,693.6068588782501
2233,440.8110989863415
5265,166530.41294917759
2,5,10, 5, 0,15, 0.00,60.00,Friday
2232,657.6760505054773
2233,406.25293062450086
5265,145061.415940472
2,5,10, 5, 0,16, 0.00,60.00,Friday
2232,447.5875248942034
2233,274.1857058525898
5265,126184.88369386265
2,5,10, 5, 0,17, 0.00,60.00,Friday
2232,213.11377597226133
2233,131.10083112309037
5265,116957.94573003894
2,5,10, 5, 0,18, 0.00,60.00,Friday
2232,23.293835454172315
2233,14.116100605014822
5265,55629.600793639904
2,5,10, 5, 0,19, 0.00,60.00,Friday
2232,0.0
2233,0.0
5265,29410.674113013
2,5,10, 5, 0,20, 0.00,60.00,Friday
2232,0.0
2233,0.0
5265,18541.491253276505
2,5,10, 5, 0,21, 0.00,60.00,Friday
2232,0.0
2233,0.0
5265,13411.169614681488
2,5,10, 5, 0,22, 0.00,60.00,Friday
2232,0.0
2233,0.0
5265,8302.385256053747
2,5,10, 5, 0,23, 0.00,60.00,Friday
2232,0.0
2233,0.0
5265,8274.6610094604
2,5,10, 5, 0,24, 0.00,60.00,Friday
2232,0.0
2233,0.0
5265,8251.785744148436
2,6,10, 6, 0, 1, 0.00,60.00,Saturday
2232,0.0
2233,0.0
5265,8227.092290450148
2,6,10, 6, 0, 2, 0.00,60.00,Saturday
2232,0.0
2233,0.0
5265,8211.745087087356
2,6,10, 6, 0, 3, 0.00,60.00,Saturday
2232,0.0
2233,0.0
5265,8186.1763357901245
2,6,10, 6, 0, 4, 0.00,60.00,Saturday
2232,0.0
2233,0.0
5265,8165.1273473812025
2,6,10, 6, 0, 5, 0.00,60.00,Saturday
2232,0.0
2233,0.0
5265,8148.091930887143
2,6,10, 6, 0, 6, 0.00,60.00,Saturday
2232,34.15563929404713
2233,21.67484013113842
5265,8123.044671147877
2,6,10, 6, 0, 7, 0.00,60.00,Saturday
2232,209.58555284509473
2233,133.5159840078935
5265,8088.073747255706
2,6,10, 6, 0, 8, 0.00,60.00,Saturday
2232,432.4450089880713
2233,269.6072421263844
5265,8084.534057445607
2,6,10, 6, 0, 9, 0.00,60.00,Saturday
2232,657.888472757426
2233,413.3267716269485
5265,42017.617610649235
2,6,10, 6, 0,10, 0.00,60.00,Saturday
2232,710.6244087295971
2233,456.7208821592454
5265,62863.03457220164
2,6,10, 6, 0,11, 0.00,60.00,Saturday
2232,658.6361342006613
2233,435.0559826543419
5265,77315.49049848529
2,6,10, 6, 0,12, 0.00,60.00,Saturday
2232,632.7726629522324
2233,423.44571438578267
5265,71461.19539885178
2,6,10, 6, 0,13, 0.00,60.00,Saturday
2232,616.9379077423735
2233,407.51177241031118
5265,60027.249158196
2,6,10, 6, 0,14, 0.00,60.00,Saturday
2232,593.3330072109765
2233,381.48566482895469
5265,52716.39150605052
2,6,10, 6, 0,15, 0.00,60.00,Saturday
2232,531.413272278863
2233,334.1232758195648
5265,52901.90953420754
2,6,10, 6, 0,16, 0.00,60.00,Saturday
2232,392.17965507760825
2233,244.53838782525245
5265,47742.450718410284
2,6,10, 6, 0,17, 0.00,60.00,Saturday
2232,198.44601218363423
2233,122.90731903575062
5265,39062.84939258679
2,6,10, 6, 0,18, 0.00,60.00,Saturday
2232,20.334587976560923
2233,12.408254511172478
5265,35196.17321883032
2,6,10, 6, 0,19, 0.00,60.00,Saturday
2232,0.0
2233,0.0
5265,28437.524266959594
2,6,10, 6, 0,20, 0.00,60.00,Saturday
2232,0.0
2233,0.0
5265,11550.653583167235
2,6,10, 6, 0,21, 0.00,60.00,Saturday
2232,0.0
2233,0.0
5265,11437.326617759098
2,6,10, 6, 0,22, 0.00,60.00,Saturday
2232,0.0
2233,0.0
5265,8659.929748262692
2,6,10, 6, 0,23, 0.00,60.00,Saturday
2232,0.0
2233,0.0
5265,8333.537838187729
2,6,10, 6, 0,24, 0.00,60.00,Saturday
2232,0.0
2233,0.0
5265,8163.660278728296
2,7,10, 7, 0, 1, 0.00,60.00,Sunday
2232,0.0
2233,0.0
5265,8111.202482247805
2,7,10, 7, 0, 2, 0.00,60.00,Sunday
2232,0.0
2233,0.0
5265,8090.155648342062
2,7,10, 7, 0, 3, 0.00,60.00,Sunday
2232,0.0
2233,0.0
5265,8062.37310243419
2,7,10, 7, 0, 4, 0.00,60.00,Sunday
2232,0.0
2233,0.0
5265,8018.734225066746
2,7,10, 7, 0, 5, 0.00,60.00,Sunday
2232,0.0
2233,0.0
5265,7971.564423304116
2,7,10, 7, 0, 6, 0.00,60.00,Sunday
2232,34.962450474881517
2233,22.188324196497559
5265,7952.251588246166
2,7,10, 7, 0, 7, 0.00,60.00,Sunday
2232,221.56153724988213
2233,141.11095477033144
5265,7997.518313342406
2,7,10, 7, 0, 8, 0.00,60.00,Sunday
2232,471.55693411644969
2233,294.1832044738908
5265,8085.846554862585
2,7,10, 7, 0, 9, 0.00,60.00,Sunday
2232,627.177257612153
2233,394.14513461920168
5265,8193.984124693228
2,7,10, 7, 0,10, 0.00,60.00,Sunday
2232,656.3422199182545
2233,421.88026075042168
5265,8297.56981592204
2,7,10, 7, 0,11, 0.00,60.00,Sunday
2232,620.4105606749894
2233,408.9731224411426
5265,8360.658693805277
2,7,10, 7, 0,12, 0.00,60.00,Sunday
2232,578.4306442962212
2233,385.2343925574142
5265,8362.419651984199
2,7,10, 7, 0,13, 0.00,60.00,Sunday
2232,563.7994384164601
2233,371.64660247491477
5265,8302.59724577555
2,7,10, 7, 0,14, 0.00,60.00,Sunday
2232,541.6655999424542
2233,348.41789022127389
5265,8241.296296139868
2,7,10, 7, 0,15, 0.00,60.00,Sunday
2232,504.76414211777679
2233,317.7206732924109
5265,8225.907498645138
2,7,10, 7, 0,16, 0.00,60.00,Sunday
2232,377.01224762623868
2233,235.51268248662044
5265,8280.416538718475
2,7,10, 7, 0,17, 0.00,60.00,Sunday
2232,190.60843105143935
2233,118.41656105112539
5265,8343.284995973807
2,7,10, 7, 0,18, 0.00,60.00,Sunday
2232,19.58114324414358
2233,12.005434272662456
5265,8378.32262599058
2,7,10, 7, 0,19, 0.00,60.00,Sunday
2232,0.0
2233,0.0
5265,8344.888557940634
2,7,10, 7, 0,20, 0.00,60.00,Sunday
2232,0.0
2233,0.0
5265,8290.82378337969
2,7,10, 7, 0,21, 0.00,60.00,Sunday
2232,0.0
2233,0.0
5265,8239.39428167459
2,7,10, 7, 0,22, 0.00,60.00,Sunday
2232,0.0
2233,0.0
5265,8180.910664430896
2,7,10, 7, 0,23, 0.00,60.00,Sunday
2232,0.0
2233,0.0
5265,8115.165312058459
2,7,10, 7, 0,24, 0.00,60.00,Sunday
2232,0.0
2233,0.0
5265,8071.751144707306
2,8,10, 8, 0, 1, 0.00,60.00,Monday
2232,0.0
2233,0.0
5265,7698.376667773341
2,8,10, 8, 0, 2, 0.00,60.00,Monday
2232,0.0
2233,0.0
5265,7742.621717960744
2,8,10, 8, 0, 3, 0.00,60.00,Monday
2232,0.0
2233,0.0
5265,7689.925948879467
2,8,10, 8, 0, 4, 0.00,60.00,Monday
2232,0.0
2233,0.0
5265,7615.853338119475
2,8,10, 8, 0, 5, 0.00,60.00,Monday
2232,0.0
2233,0.0
5265,7548.412174881789
2,8,10, 8, 0, 6, 0.00,60.00,Monday
2232,37.17777309365309
2233,23.533108245655723
5265,7495.091409304536
2,8,10, 8, 0, 7, 0.00,60.00,Monday
2232,224.6378460718951
2233,143.12341859995443
5265,7471.492238146036
2,8,10, 8, 0, 8, 0.00,60.00,Monday
2232,441.55296435537249
2233,275.5267802810266
5265,29274.053845859173
2,8,10, 8, 0, 9, 0.00,60.00,Monday
2232,614.5851297565428
2233,386.36034602519046
5265,60329.55862856596
2,8,10, 8, 0,10, 0.00,60.00,Monday
2232,659.0544392219106
2233,423.6300611834449
5265,88209.76860122707
2,8,10, 8, 0,11, 0.00,60.00,Monday
2232,631.8068966793649
2233,416.7475340315653
5265,90382.80833215238
2,8,10, 8, 0,12, 0.00,60.00,Monday
2232,583.0751142466696
2233,388.4415854915979
5265,129638.87493534725
2,8,10, 8, 0,13, 0.00,60.00,Monday
2232,537.928802432216
2233,354.6694953614283
5265,132296.78843596718
2,8,10, 8, 0,14, 0.00,60.00,Monday
2232,468.8261326649563
2233,302.96333848074098
5265,165472.909355166
2,8,10, 8, 0,15, 0.00,60.00,Monday
2232,388.88973933779996
2233,246.66869795747275
5265,174776.83976231016
2,8,10, 8, 0,16, 0.00,60.00,Monday
2232,273.15454540721688
2233,172.08983388085435
5265,156130.41335377153
2,8,10, 8, 0,17, 0.00,60.00,Monday
2232,130.01890219584065
2233,82.7023115327358
5265,135066.12095610635
2,8,10, 8, 0,18, 0.00,60.00,Monday
2232,13.500714223353887
2233,8.550851515754687
5265,52367.77156877942
2,8,10, 8, 0,19, 0.00,60.00,Monday
2232,0.0
2233,0.0
5265,25739.4679833514
2,8,10, 8, 0,20, 0.00,60.00,Monday
2232,0.0
2233,0.0
5265,10855.946360711298
2,8,10, 8, 0,21, 0.00,60.00,Monday
2232,0.0
2233,0.0
5265,8427.067171104942
2,8,10, 8, 0,22, 0.00,60.00,Monday
2232,0.0
2233,0.0
5265,7978.519323328625
2,8,10, 8, 0,23, 0.00,60.00,Monday
2232,0.0
2233,0.0
5265,7942.427727076604
2,8,10, 8, 0,24, 0.00,60.00,Monday
2232,0.0
2233,0.0
5265,7914.250342202453
2,9,10, 9, 0, 1, 0.00,60.00,Tuesday
2232,0.0
2233,0.0
5265,7118.495555056973
2,9,10, 9, 0, 2, 0.00,60.00,Tuesday
2232,0.0
2233,0.0
5265,7207.281565435503
2,9,10, 9, 0, 3, 0.00,60.00,Tuesday
2232,0.0
2233,0.0
5265,7154.349535514295
2,9,10, 9, 0, 4, 0.00,60.00,Tuesday
2232,0.0
2233,0.0
5265,7080.629733334416
2,9,10, 9, 0, 5, 0.00,60.00,Tuesday
2232,0.0
2233,0.0
5265,7002.569997388203
2,9,10, 9, 0, 6, 0.00,60.00,Tuesday
2232,69.3995454487489
2233,38.471438544621587
5265,7130.039205391812
2,9,10, 9, 0, 7, 0.00,60.00,Tuesday
2232,405.02631223905049
2233,245.2412336719385
5265,7518.739944541361
2,9,10, 9, 0, 8, 0.00,60.00,Tuesday
2232,724.7572529585381
2233,438.8957979605057
5265,20821.88286234628
2,9,10, 9, 0, 9, 0.00,60.00,Tuesday
2232,869.4021718379436
2233,535.6217023668072
5265,73580.27454968059
2,9,10, 9, 0,10, 0.00,60.00,Tuesday
2232,831.3951984494948
2233,526.9969776740005
5265,105802.16524354521
2,9,10, 9, 0,11, 0.00,60.00,Tuesday
2232,705.3956661674525
2233,463.42571866235297
5265,114569.86337199506
2,9,10, 9, 0,12, 0.00,60.00,Tuesday
2232,629.3621380737271
2233,421.9440757478564
5265,152515.74335141525
2,9,10, 9, 0,13, 0.00,60.00,Tuesday
2232,654.7794493619803
2233,431.25813966266579
5265,144409.74563089107
2,9,10, 9, 0,14, 0.00,60.00,Tuesday
2232,689.1304938424545
2233,438.186551393045
5265,168095.51463243963
2,9,10, 9, 0,15, 0.00,60.00,Tuesday
2232,599.2755135481693
2233,370.98115315272829
5265,147038.68868657424
2,9,10, 9, 0,16, 0.00,60.00,Tuesday
2232,398.72637944579238
2233,247.47364986206399
5265,149418.42702746197
2,9,10, 9, 0,17, 0.00,60.00,Tuesday
2232,161.59222016485385
2233,101.70393964254173
5265,125277.24251466495
2,9,10, 9, 0,18, 0.00,60.00,Tuesday
2232,15.296127155404426
2233,9.593203373924899
5265,111272.44913226261
2,9,10, 9, 0,19, 0.00,60.00,Tuesday
2232,0.0
2233,0.0
5265,66334.83006347544
2,9,10, 9, 0,20, 0.00,60.00,Tuesday
2232,0.0
2233,0.0
5265,32261.00407953699
2,9,10, 9, 0,21, 0.00,60.00,Tuesday
2232,0.0
2233,0.0
5265,8657.365337249343
2,9,10, 9, 0,22, 0.00,60.00,Tuesday
2232,0.0
2233,0.0
5265,8393.891789855055
2,9,10, 9, 0,23, 0.00,60.00,Tuesday
2232,0.0
2233,0.0
5265,8303.11011072275
2,9,10, 9, 0,24, 0.00,60.00,Tuesday
2232,0.0
2233,0.0
5265,8257.114984990514
2,10,10,10, 0, 1, 0.00,60.00,Wednesday
2232,0.0
2233,0.0
5265,8227.520130876934
2,10,10,10, 0, 2, 0.00,60.00,Wednesday
2232,0.0
2233,0.0
5265,8202.301203417288
2,10,10,10, 0, 3, 0.00,60.00,Wednesday
2232,0.0
2233,0.0
5265,8173.120012358976
2,10,10,10, 0, 4, 0.00,60.00,Wednesday
2232,0.0
2233,0.0
5265,8123.695856437897
2,10,10,10, 0, 5, 0.00,60.00,Wednesday
2232,0.0
2233,0.0
5265,8004.223856137913
2,10,10,10, 0, 6, 0.00,60.00,Wednesday
2232,38.407619137456
2233,24.25904462947267
5265,8025.32163806337
2,10,10,10, 0, 7, 0.00,60.00,Wednesday
2232,228.10789040895976
2233,145.15536054867693
5265,8193.973597584341
2,10,10,10, 0, 8, 0.00,60.00,Wednesday
2232,433.45713159834699
2233,270.1483363671266
5265,25395.92305440037
2,10,10,10, 0, 9, 0.00,60.00,Wednesday
2232,657.6062760194634
2233,413.0279728119283
5265,80937.03948565091
2,10,10,10, 0,10, 0.00,60.00,Wednesday
2232,706.5107531889125
2233,454.02922447053
5265,113535.66595216735
2,10,10,10, 0,11, 0.00,60.00,Wednesday
2232,646.1505265124671
2233,427.0345690379664
5265,135568.48255048824
2,10,10,10, 0,12, 0.00,60.00,Wednesday
2232,541.9938599434118
2233,364.7397893169139
5265,171797.0015835306
2,10,10,10, 0,13, 0.00,60.00,Wednesday
2232,615.7061254168648
2233,405.4045060579743
5265,172075.3852376791
2,10,10,10, 0,14, 0.00,60.00,Wednesday
2232,677.071311448557
2233,430.12199904609676
5265,172349.08140390129
2,10,10,10, 0,15, 0.00,60.00,Wednesday
2232,652.9995200084076
2233,403.2630770259347
5265,178722.44441488773
2,10,10,10, 0,16, 0.00,60.00,Wednesday
2232,503.00521478549396
2233,306.08957405237529
5265,144704.32387494669
2,10,10,10, 0,17, 0.00,60.00,Wednesday
2232,258.24725037311858
2233,155.32596463555667
5265,83126.94133805315
2,10,10,10, 0,18, 0.00,60.00,Wednesday
2232,27.220133273918454
2233,15.89750764358127
5265,52928.220861403686
2,10,10,10, 0,19, 0.00,60.00,Wednesday
2232,0.0
2233,0.0
5265,23332.621091336565
2,10,10,10, 0,20, 0.00,60.00,Wednesday
2232,0.0
2233,0.0
5265,9363.135168454479
2,10,10,10, 0,21, 0.00,60.00,Wednesday
2232,0.0
2233,0.0
5265,8906.097268901556
2,10,10,10, 0,22, 0.00,60.00,Wednesday
2232,0.0
2233,0.0
5265,8461.424292333237
2,10,10,10, 0,23, 0.00,60.00,Wednesday
2232,0.0
2233,0.0
5265,8429.75455117574
2,10,10,10, 0,24, 0.00,60.00,Wednesday
2232,0.0
2233,0.0
5265,8392.421807566958
2,11,10,11, 0, 1, 0.00,60.00,Thursday
2232,0.0
2233,0.0
5265,8341.804300886108
2,11,10,11, 0, 2, 0.00,60.00,Thursday
2232,0.0
2233,0.0
5265,8281.248006173311
2,11,10,11, 0, 3, 0.00,60.00,Thursday
2232,0.0
2233,0.0
5265,8241.326451603132
2,11,10,11, 0, 4, 0.00,60.00,Thursday
2232,0.0
2233,0.0
5265,8214.779396360484
2,11,10,11, 0, 5, 0.00,60.00,Thursday
2232,0.0
2233,0.0
5265,8188.431172257285
2,11,10,11, 0, 6, 0.00,60.00,Thursday
2232,42.83109573475034
2233,26.835287108593055
5265,8210.104326549166
2,11,10,11, 0, 7, 0.00,60.00,Thursday
2232,258.60560452455419
2233,164.1438115228714
5265,8316.259039214901
2,11,10,11, 0, 8, 0.00,60.00,Thursday
2232,489.89601631741
2233,305.47130954685567
5265,23841.304298915366
2,11,10,11, 0, 9, 0.00,60.00,Thursday
2232,633.3130545912999
2233,397.84796064209146
5265,114294.39010982959
2,11,10,11, 0,10, 0.00,60.00,Thursday
2232,660.1464284598551
2233,424.22873164364008
5265,148732.71421859673
2,11,10,11, 0,11, 0.00,60.00,Thursday
2232,634.2287029510603
2233,418.2053321508451
5265,167397.05805223264
2,11,10,11, 0,12, 0.00,60.00,Thursday
2232,617.4224461089402
2233,412.21719528227757
5265,169387.46940710888
2,11,10,11, 0,13, 0.00,60.00,Thursday
2232,614.6603317453223
2233,406.08887037828966
5265,172179.06898911837
2,11,10,11, 0,14, 0.00,60.00,Thursday
2232,608.5492656049488
2233,390.7007190845413
5265,184378.43612080735
2,11,10,11, 0,15, 0.00,60.00,Thursday
2232,544.2107484340594
2233,342.05509324583928
5265,180287.19520647356
2,11,10,11, 0,16, 0.00,60.00,Thursday
2232,389.25207937382478
2233,242.2052928603271
5265,181889.17237612629
2,11,10,11, 0,17, 0.00,60.00,Thursday
2232,186.58637523048868
2233,115.59731947893948
5265,168316.49390294867
2,11,10,11, 0,18, 0.00,60.00,Thursday
2232,19.041974891991829
2233,11.650159242766725
5265,88468.09575751437
2,11,10,11, 0,19, 0.00,60.00,Thursday
2232,0.0
2233,0.0
5265,63635.61657467206
2,11,10,11, 0,20, 0.00,60.00,Thursday
2232,0.0
2233,0.0
5265,45701.25363686597
2,11,10,11, 0,21, 0.00,60.00,Thursday
2232,0.0
2233,0.0
5265,8466.666047906043
2,11,10,11, 0,22, 0.00,60.00,Thursday
2232,0.0
2233,0.0
5265,8421.903071748247
2,11,10,11, 0,23, 0.00,60.00,Thursday
2232,0.0
2233,0.0
5265,8379.96448065601
2,11,10,11, 0,24, 0.00,60.00,Thursday
2232,0.0
2233,0.0
5265,8333.445606882622
2,12,10,12, 0, 1, 0.00,60.00,Friday
2232,0.0
2233,0.0
5265,8261.998467784719
2,12,10,12, 0, 2, 0.00,60.00,Friday
2232,0.0
2233,0.0
5265,8183.592451689925
2,12,10,12, 0, 3, 0.00,60.00,Friday
2232,0.0
2233,0.0
5265,8149.8225089277
2,12,10,12, 0, 4, 0.00,60.00,Friday
2232,0.0
2233,0.0
5265,8186.35427347048
2,12,10,12, 0, 5, 0.00,60.00,Friday
2232,0.0
2233,0.0
5265,8223.872679040307
2,12,10,12, 0, 6, 0.00,60.00,Friday
2232,40.813667930278118
2233,25.68008429869077
5265,8258.686432764758
2,12,10,12, 0, 7, 0.00,60.00,Friday
2232,253.35337783337205
2233,160.8358627600213
5265,8329.008309524916
2,12,10,12, 0, 8, 0.00,60.00,Friday
2232,499.8482080533827
2233,311.8265884554875
5265,29218.277632498546
2,12,10,12, 0, 9, 0.00,60.00,Friday
2232,651.4646209061527
2233,409.13774934348938
5265,91784.92754309079
2,12,10,12, 0,10, 0.00,60.00,Friday
2232,675.9713012856497
2233,434.2877801165391
5265,150581.45620920845
2,12,10,12, 0,11, 0.00,60.00,Friday
2232,639.4336907945634
2233,421.80280645787527
5265,148979.12796781734
2,12,10,12, 0,12, 0.00,60.00,Friday
2232,606.9524296240193
2233,404.93391212162518
5265,151816.20811391003
2,12,10,12, 0,13, 0.00,60.00,Friday
2232,591.0418490283537
2233,389.9260988622475
5265,161173.2083014819
2,12,10,12, 0,14, 0.00,60.00,Friday
2232,575.9733090070997
2233,370.36980031803986
5265,168559.49395646447
2,12,10,12, 0,15, 0.00,60.00,Friday
2232,514.8434751162356
2233,323.8066690799581
5265,148748.75703896106
2,12,10,12, 0,16, 0.00,60.00,Friday
2232,374.74369689913149
2233,233.91183920300703
5265,131572.9648168677
2,12,10,12, 0,17, 0.00,60.00,Friday
2232,175.50446193406789
2233,109.29500219846712
5265,122015.85385035417
2,12,10,12, 0,18, 0.00,60.00,Friday
2232,17.492807552146386
2233,10.779765539214799
5265,56021.64856766024
2,12,10,12, 0,19, 0.00,60.00,Friday
2232,0.0
2233,0.0
5265,29686.72647204244
2,12,10,12, 0,20, 0.00,60.00,Friday
2232,0.0
2233,0.0
5265,18672.198826466443
2,12,10,12, 0,21, 0.00,60.00,Friday
2232,0.0
2233,0.0
5265,13465.181014624715
2,12,10,12, 0,22, 0.00,60.00,Friday
2232,0.0
2233,0.0
5265,8281.713703951324
2,12,10,12, 0,23, 0.00,60.00,Friday
2232,0.0
2233,0.0
5265,8184.047521500495
2,12,10,12, 0,24, 0.00,60.00,Friday
2232,0.0
2233,0.0
5265,8116.356621736838
2,13,10,13, 0, 1, 0.00,60.00,Saturday
2232,0.0
2233,0.0
5265,8106.180895712106
2,13,10,13, 0, 2, 0.00,60.00,Saturday
2232,0.0
2233,0.0
5265,8109.302913806266
2,13,10,13, 0, 3, 0.00,60.00,Saturday
2232,0.0
2233,0.0
5265,8112.384528282621
2,13,10,13, 0, 4, 0.00,60.00,Saturday
2232,0.0
2233,0.0
5265,8106.488888246743
2,13,10,13, 0, 5, 0.00,60.00,Saturday
2232,0.0
2233,0.0
5265,8100.743542255955
2,13,10,13, 0, 6, 0.00,60.00,Saturday
2232,42.76292861494405
2233,26.799041402167178
5265,8130.514315456966
2,13,10,13, 0, 7, 0.00,60.00,Saturday
2232,257.879221802664
2233,163.7141309144616
5265,8239.375064396074
2,13,10,13, 0, 8, 0.00,60.00,Saturday
2232,490.17865655259859
2233,305.68927952206306
5265,8384.500569184725
2,13,10,13, 0, 9, 0.00,60.00,Saturday
2232,649.2054558434352
2233,407.7284196310681
5265,58306.22498839366
2,13,10,13, 0,10, 0.00,60.00,Saturday
2232,680.6353630195272
2233,437.2666390635316
5265,82807.54528308769
2,13,10,13, 0,11, 0.00,60.00,Saturday
2232,643.6473520999444
2233,424.68095857039938
5265,93784.4908512116
2,13,10,13, 0,12, 0.00,60.00,Saturday
2232,613.7023331166812
2233,409.8795975250991
5265,84307.9190016538
2,13,10,13, 0,13, 0.00,60.00,Saturday
2232,605.0672115226321
2233,399.56295362855948
5265,63975.160739196384
2,13,10,13, 0,14, 0.00,60.00,Saturday
2232,598.7964315675777
2233,385.053342917048
5265,57377.87405625854
2,13,10,13, 0,15, 0.00,60.00,Saturday
2232,533.8363693410992
2233,335.566829693247
5265,57454.42608125165
2,13,10,13, 0,16, 0.00,60.00,Saturday
2232,388.09132423856979
2233,241.2159968616269
5265,51700.89549890637
2,13,10,13, 0,17, 0.00,60.00,Saturday
2232,180.97462388103919
2233,112.2466430613736
5265,42132.832363907524
2,13,10,13, 0,18, 0.00,60.00,Saturday
2232,18.011644479777119
2233,11.028277999347523
5265,36011.12878871522
2,13,10,13, 0,19, 0.00,60.00,Saturday
2232,0.0
2233,0.0
5265,28637.980488356585
2,13,10,13, 0,20, 0.00,60.00,Saturday
2232,0.0
2233,0.0
5265,12608.786766737308
2,13,10,13, 0,21, 0.00,60.00,Saturday
2232,0.0
2233,0.0
5265,12456.051674440028
2,13,10,13, 0,22, 0.00,60.00,Saturday
2232,0.0
2233,0.0
5265,8686.196754520204
2,13,10,13, 0,23, 0.00,60.00,Saturday
2232,0.0
2233,0.0
5265,8439.505433815648
2,13,10,13, 0,24, 0.00,60.00,Saturday
2232,0.0
2233,0.0
5265,8351.921465377594