Program Version,EnergyPlus, Version 8.7.0-78a111df4a, YMD=2019.12.26 10:13
1,5,Environment Title[],Latitude[deg],Longitude[deg],Time Zone[],Elevation[m]
2,6,Day of Simulation[],Month[],Day of Month[],DST Indicator[1=yes 0=no],Hour[],StartMinute[],EndMinute[],DayType
3,3,Cumulative Day of Simulation[],Month[],Day of Month[],DST Indicator[1=yes 0=no],DayType  ! When Daily Report Variables Requested
4,2,Cumulative Days of Simulation[],Month[]  ! When Monthly Report Variables Requested
5,1,Cumulative Days of Simulation[] ! When Run Period Report Variables Requested
2232,1,AF305DAYLIGHINGCONTROL,Daylighting Reference Point 1 Illuminance [lux] !Hourly
2233,1,AF305DAYLIGHINGCONTROL,Daylighting Reference Point 2 Illuminance [lux] !Hourly
5265,1,Whole Building,Facility Total Electric Demand Power [W] !Hourly
End of Data Dictionary
1,RUNPERIOD,  10.30, 123.97,   8.00,  24.00
2,1,10, 1, 0, 1, 0.00,60.00,Monday
2232,0.0
2233,0.0
5265,7959.2340340260525
2,1,10, 1, 0, 2, 0.00,60.00,Monday
2232,0.0
2233,0.0
5265,7873.480624506763
2,1,10, 1, 0, 3, 0.00,60.00,Monday
2232,0.0
2233,0.0
5265,7736.39281216278
2,1,10, 1, 0, 4, 0.00,60.00,Monday
2232,0.0
2233,0.0
5265,7669.686931190198
2,1,10, 1, 0, 5, 0.00,60.00,Monday
2232,0.0
2233,0.0
5265,7605.573975803229
2,1,10, 1, 0, 6, 0.00,60.00,Monday
2232,29.498315300233853
2233,15.127636455027093
5265,7665.214675931843
2,1,10, 1, 0, 7, 0.00,60.00,Monday
2232,154.017657802544
2233,89.90498343135867
5265,7801.817526176565
2,1,10, 1, 0, 8, 0.00,60.00,Monday
2232,247.08413616387419
2233,147.06730239493829
5265,29701.938650045155
2,1,10, 1, 0, 9, 0.00,60.00,Monday
2232,287.23177944989149
2233,175.38117733323169
5265,61848.50338016476
2,1,10, 1, 0,10, 0.00,60.00,Monday
2232,273.7021358635615
2233,172.47377117256372
5265,96199.4211061483
2,1,10, 1, 0,11, 0.00,60.00,Monday
2232,230.95448889687069
2233,150.94355257181585
5265,97931.51885578752
2,1,10, 1, 0,12, 0.00,60.00,Monday
2232,189.8429020918588
2233,126.88986243534679
5265,141604.59820598065
2,1,10, 1, 0,13, 0.00,60.00,Monday
2232,196.30421604460109
2233,129.0891102416926
5265,145039.4042143056
2,1,10, 1, 0,14, 0.00,60.00,Monday
2232,195.10678808351546
2233,124.77216147464854
5265,170319.78647607968
2,1,10, 1, 0,15, 0.00,60.00,Monday
2232,156.89122664880765
2233,98.2255152254297
5265,177555.71170813536
2,1,10, 1, 0,16, 0.00,60.00,Monday
2232,103.00632933053514
2233,64.23752689565714
5265,158697.68371688625
2,1,10, 1, 0,17, 0.00,60.00,Monday
2232,41.028462015958918
2233,25.98768233896371
5265,137192.77380015577
2,1,10, 1, 0,18, 0.00,60.00,Monday
2232,4.655385690308772
2233,2.9498587068783079
5265,52784.818975842885
2,1,10, 1, 0,19, 0.00,60.00,Monday
2232,0.0
2233,0.0
5265,25999.083045837124
2,1,10, 1, 0,20, 0.00,60.00,Monday
2232,0.0
2233,0.0
5265,10994.476428200645
2,1,10, 1, 0,21, 0.00,60.00,Monday
2232,0.0
2233,0.0
5265,8577.795462242471
2,1,10, 1, 0,22, 0.00,60.00,Monday
2232,0.0
2233,0.0
5265,8150.562530488366
2,1,10, 1, 0,23, 0.00,60.00,Monday
2232,0.0
2233,0.0
5265,8136.888514586783
2,1,10, 1, 0,24, 0.00,60.00,Monday
2232,0.0
2233,0.0
5265,8119.398837225795
2,2,10, 2, 0, 1, 0.00,60.00,Tuesday
2232,0.0
2233,0.0
5265,7867.88330061716
2,2,10, 2, 0, 2, 0.00,60.00,Tuesday
2232,0.0
2233,0.0
5265,7777.1476081734
2,2,10, 2, 0, 3, 0.00,60.00,Tuesday
2232,0.0
2233,0.0
5265,7667.301407217766
2,2,10, 2, 0, 4, 0.00,60.00,Tuesday
2232,0.0
2233,0.0
5265,7551.190045651364
2,2,10, 2, 0, 5, 0.00,60.00,Tuesday
2232,0.0
2233,0.0
5265,7424.286700321288
2,2,10, 2, 0, 6, 0.00,60.00,Tuesday
2232,30.24505342487626
2233,15.423625848436386
5265,7536.338552744021
2,2,10, 2, 0, 7, 0.00,60.00,Tuesday
2232,159.55886289541199
2233,92.23264389791344
5265,7972.732579801817
2,2,10, 2, 0, 8, 0.00,60.00,Tuesday
2232,259.2978158510044
2233,152.61147925099034
5265,21084.495961413428
2,2,10, 2, 0, 9, 0.00,60.00,Tuesday
2232,296.4953454661838
2233,180.45864727757496
5265,82346.46017097096
2,2,10, 2, 0,10, 0.00,60.00,Tuesday
2232,279.11968399995546
2233,175.6440046336701
5265,115205.90929378009
2,2,10, 2, 0,11, 0.00,60.00,Tuesday
2232,224.10176926829124
2233,146.47334585909929
5265,120925.85725725773
2,2,10, 2, 0,12, 0.00,60.00,Tuesday
2232,196.5732703304307
2233,131.10640473383044
5265,151738.6328218753
2,2,10, 2, 0,13, 0.00,60.00,Tuesday
2232,196.4841972751632
2233,128.96036943431469
5265,136588.60570392037
2,2,10, 2, 0,14, 0.00,60.00,Tuesday
2232,171.80345142119666
2233,110.00505203983149
5265,154141.4796466276
2,2,10, 2, 0,15, 0.00,60.00,Tuesday
2232,146.34381161898276
2233,91.8036426606203
5265,130313.27310140715
2,2,10, 2, 0,16, 0.00,60.00,Tuesday
2232,103.3910113810799
2233,64.45362370033419
5265,135051.86132021555
2,2,10, 2, 0,17, 0.00,60.00,Tuesday
2232,51.800496565792688
2233,32.65071779921806
5265,110847.06050792294
2,2,10, 2, 0,18, 0.00,60.00,Tuesday
2232,5.871729862719557
2233,3.6848046977567328
5265,109441.19910545259
2,2,10, 2, 0,19, 0.00,60.00,Tuesday
2232,0.0
2233,0.0
5265,64249.07299808992
2,2,10, 2, 0,20, 0.00,60.00,Tuesday
2232,0.0
2233,0.0
5265,31286.681564760223
2,2,10, 2, 0,21, 0.00,60.00,Tuesday
2232,0.0
2233,0.0
5265,8632.09762611168
2,2,10, 2, 0,22, 0.00,60.00,Tuesday
2232,0.0
2233,0.0
5265,8386.152243243805
2,2,10, 2, 0,23, 0.00,60.00,Tuesday
2232,0.0
2233,0.0
5265,8335.026467204432
2,2,10, 2, 0,24, 0.00,60.00,Tuesday
2232,0.0
2233,0.0
5265,8295.401821224472
2,3,10, 3, 0, 1, 0.00,60.00,Wednesday
2232,0.0
2233,0.0
5265,8218.903132084177
2,3,10, 3, 0, 2, 0.00,60.00,Wednesday
2232,0.0
2233,0.0
5265,8121.950194455774
2,3,10, 3, 0, 3, 0.00,60.00,Wednesday
2232,0.0
2233,0.0
5265,7992.122818873356
2,3,10, 3, 0, 4, 0.00,60.00,Wednesday
2232,0.0
2233,0.0
5265,7928.509336255766
2,3,10, 3, 0, 5, 0.00,60.00,Wednesday
2232,0.0
2233,0.0
5265,7856.33672454124
2,3,10, 3, 0, 6, 0.00,60.00,Wednesday
2232,12.32872563622108
2233,7.752318024184291
5265,7897.641580376349
2,3,10, 3, 0, 7, 0.00,60.00,Wednesday
2232,76.32355581504538
2233,48.29461840482772
5265,8081.325108747825
2,3,10, 3, 0, 8, 0.00,60.00,Wednesday
2232,158.8049928944531
2233,98.47035977862062
5265,25186.20994524461
2,3,10, 3, 0, 9, 0.00,60.00,Wednesday
2232,224.3982598746093
2233,140.10735838400329
5265,75691.05439934705
2,3,10, 3, 0,10, 0.00,60.00,Wednesday
2232,234.34379358876073
2233,149.7049374436937
5265,112756.83673532901
2,3,10, 3, 0,11, 0.00,60.00,Wednesday
2232,217.69315685050857
2233,142.90963357091526
5265,133384.7950868719
2,3,10, 3, 0,12, 0.00,60.00,Wednesday
2232,197.85457391090689
2233,131.1853983572009
5265,164777.6926580811
2,3,10, 3, 0,13, 0.00,60.00,Wednesday
2232,177.45756379444618
2233,116.36706845304814
5265,155796.17790812409
2,3,10, 3, 0,14, 0.00,60.00,Wednesday
2232,159.0542185394132
2233,102.12924404832399
5265,152865.20237996189
2,3,10, 3, 0,15, 0.00,60.00,Wednesday
2232,151.57424319743397
2233,94.99974856515435
5265,158308.407822009
2,3,10, 3, 0,16, 0.00,60.00,Wednesday
2232,122.87675492147143
2233,76.38500492472304
5265,123409.38186705993
2,3,10, 3, 0,17, 0.00,60.00,Wednesday
2232,65.19086281636479
2233,40.29853430822506
5265,68402.49240324398
2,3,10, 3, 0,18, 0.00,60.00,Wednesday
2232,7.88112899055093
2233,4.784498171557281
5265,52188.31736217005
2,3,10, 3, 0,19, 0.00,60.00,Wednesday
2232,0.0
2233,0.0
5265,22663.04861548352
2,3,10, 3, 0,20, 0.00,60.00,Wednesday
2232,0.0
2233,0.0
5265,9042.397569858804
2,3,10, 3, 0,21, 0.00,60.00,Wednesday
2232,0.0
2233,0.0
5265,8519.656976130174
2,3,10, 3, 0,22, 0.00,60.00,Wednesday
2232,0.0
2233,0.0
5265,8099.8497191630195
2,3,10, 3, 0,23, 0.00,60.00,Wednesday
2232,0.0
2233,0.0
5265,8126.1669229825975
2,3,10, 3, 0,24, 0.00,60.00,Wednesday
2232,0.0
2233,0.0
5265,8123.567146775113
2,4,10, 4, 0, 1, 0.00,60.00,Thursday
2232,0.0
2233,0.0
5265,8059.445665957645
2,4,10, 4, 0, 2, 0.00,60.00,Thursday
2232,0.0
2233,0.0
5265,7984.257691591555
2,4,10, 4, 0, 3, 0.00,60.00,Thursday
2232,0.0
2233,0.0
5265,7923.5749176475265
2,4,10, 4, 0, 4, 0.00,60.00,Thursday
2232,0.0
2233,0.0
5265,7908.460090768509
2,4,10, 4, 0, 5, 0.00,60.00,Thursday
2232,0.0
2233,0.0
5265,7906.542687718092
2,4,10, 4, 0, 6, 0.00,60.00,Thursday
2232,15.208691060557135
2233,9.406956985755804
5265,7928.626864506714
2,4,10, 4, 0, 7, 0.00,60.00,Thursday
2232,94.33601164234277
2233,59.46492694521197
5265,8000.300629276187
2,4,10, 4, 0, 8, 0.00,60.00,Thursday
2232,187.05037498680574
2233,115.3764085541926
5265,22699.031137020433
2,4,10, 4, 0, 9, 0.00,60.00,Thursday
2232,231.3360316304281
2233,144.3328862680012
5265,96257.91241464978
2,4,10, 4, 0,10, 0.00,60.00,Thursday
2232,234.00698501281136
2233,149.5339995833241
5265,132089.24011030093
2,4,10, 4, 0,11, 0.00,60.00,Thursday
2232,216.7197560902814
2233,142.28311013435653
5265,157431.61746292434
2,4,10, 4, 0,12, 0.00,60.00,Thursday
2232,204.2724259154858
2233,135.65641608145598
5265,161777.51493185306
2,4,10, 4, 0,13, 0.00,60.00,Thursday
2232,199.36235522886046
2233,130.83941357636875
5265,164405.51673091143
2,4,10, 4, 0,14, 0.00,60.00,Thursday
2232,194.0339682777202
2233,124.02778391467865
5265,176301.92105801966
2,4,10, 4, 0,15, 0.00,60.00,Thursday
2232,181.0423284989395
2233,113.09957807932182
5265,165850.3763181376
2,4,10, 4, 0,16, 0.00,60.00,Thursday
2232,137.28623763394649
2233,84.5919044778251
5265,172087.54407643205
2,4,10, 4, 0,17, 0.00,60.00,Thursday
2232,70.75205621707214
2233,43.309454266435299
5265,160268.97059719734
2,4,10, 4, 0,18, 0.00,60.00,Thursday
2232,9.325977923459265
2233,5.581973196355746
5265,87294.9234797348
2,4,10, 4, 0,19, 0.00,60.00,Thursday
2232,0.0
2233,0.0
5265,62345.287996808205
2,4,10, 4, 0,20, 0.00,60.00,Thursday
2232,0.0
2233,0.0
5265,44474.35702236674
2,4,10, 4, 0,21, 0.00,60.00,Thursday
2232,0.0
2233,0.0
5265,8248.84657985771
2,4,10, 4, 0,22, 0.00,60.00,Thursday
2232,0.0
2233,0.0
5265,8236.80356546019
2,4,10, 4, 0,23, 0.00,60.00,Thursday
2232,0.0
2233,0.0
5265,8234.014732438978
2,4,10, 4, 0,24, 0.00,60.00,Thursday
2232,0.0
2233,0.0
5265,8190.4897343301345
2,5,10, 5, 0, 1, 0.00,60.00,Friday
2232,0.0
2233,0.0
5265,8093.750169465643
2,5,10, 5, 0, 2, 0.00,60.00,Friday
2232,0.0
2233,0.0
5265,7994.786715674317
2,5,10, 5, 0, 3, 0.00,60.00,Friday
2232,0.0
2233,0.0
5265,7930.291689937293
2,5,10, 5, 0, 4, 0.00,60.00,Friday
2232,0.0
2233,0.0
5265,7913.813525734309
2,5,10, 5, 0, 5, 0.00,60.00,Friday
2232,0.0
2233,0.0
5265,7905.567625255771
2,5,10, 5, 0, 6, 0.00,60.00,Friday
2232,22.778767503596375
2233,12.549350556321893
5265,7921.5474519447935
2,5,10, 5, 0, 7, 0.00,60.00,Friday
2232,126.76664678029965
2233,76.98551030729814
5265,7979.774875078184
2,5,10, 5, 0, 8, 0.00,60.00,Friday
2232,202.086376053348
2233,123.93124186845887
5265,28011.262216850588
2,5,10, 5, 0, 9, 0.00,60.00,Friday
2232,238.41819169734468
2233,148.16424939601215
5265,70132.30282244759
2,5,10, 5, 0,10, 0.00,60.00,Friday
2232,230.98657485568467
2233,147.57887775242606
5265,137496.24180194635
2,5,10, 5, 0,11, 0.00,60.00,Friday
2232,213.25029567682456
2233,139.99557774671087
5265,136026.0033845743
2,5,10, 5, 0,12, 0.00,60.00,Friday
2232,193.9174822098686
2233,129.41608035962927
5265,142402.1523569268
2,5,10, 5, 0,13, 0.00,60.00,Friday
2232,203.05125844618125
2233,132.94529076247523
5265,156211.40937801582
2,5,10, 5, 0,14, 0.00,60.00,Friday
2232,227.9375334141898
2233,143.97308193880824
5265,166530.41294917759
2,5,10, 5, 0,15, 0.00,60.00,Friday
2232,216.2229792182276
2233,132.7140435125862
5265,145061.415940472
2,5,10, 5, 0,16, 0.00,60.00,Friday
2232,147.19970391103335
2233,89.60308218493448
5265,126184.88369386265
2,5,10, 5, 0,17, 0.00,60.00,Friday
2232,70.10892221041674
2233,42.86646177857542
5265,116957.94573003894
2,5,10, 5, 0,18, 0.00,60.00,Friday
2232,7.665384982278662
2233,4.616856933041922
5265,55629.600793639904
2,5,10, 5, 0,19, 0.00,60.00,Friday
2232,0.0
2233,0.0
5265,29410.674113013
2,5,10, 5, 0,20, 0.00,60.00,Friday
2232,0.0
2233,0.0
5265,18541.491253276505
2,5,10, 5, 0,21, 0.00,60.00,Friday
2232,0.0
2233,0.0
5265,13411.169614681488
2,5,10, 5, 0,22, 0.00,60.00,Friday
2232,0.0
2233,0.0
5265,8302.385256053747
2,5,10, 5, 0,23, 0.00,60.00,Friday
2232,0.0
2233,0.0
5265,8274.6610094604
2,5,10, 5, 0,24, 0.00,60.00,Friday
2232,0.0
2233,0.0
5265,8251.785744148436
2,6,10, 6, 0, 1, 0.00,60.00,Saturday
2232,0.0
2233,0.0
5265,8227.092290450148
2,6,10, 6, 0, 2, 0.00,60.00,Saturday
2232,0.0
2233,0.0
5265,8211.745087087356
2,6,10, 6, 0, 3, 0.00,60.00,Saturday
2232,0.0
2233,0.0
5265,8186.1763357901245
2,6,10, 6, 0, 4, 0.00,60.00,Saturday
2232,0.0
2233,0.0
5265,8165.1273473812025
2,6,10, 6, 0, 5, 0.00,60.00,Saturday
2232,0.0
2233,0.0
5265,8148.091930887143
2,6,10, 6, 0, 6, 0.00,60.00,Saturday
2232,11.236308893748907
2233,7.0902304264739099
5265,8123.044671147877
2,6,10, 6, 0, 7, 0.00,60.00,Saturday
2232,68.94067247952025
2233,43.67072489066043
5265,8088.073747255706
2,6,10, 6, 0, 8, 0.00,60.00,Saturday
2232,142.259108017515
2233,88.16690428593154
5265,8084.534057445607
2,6,10, 6, 0, 9, 0.00,60.00,Saturday
2232,216.35854431389405
2233,135.1200851502465
5265,42017.617610649235
2,6,10, 6, 0,10, 0.00,60.00,Saturday
2232,233.61179433916679
2233,149.26911730706014
5265,62863.03457220164
2,6,10, 6, 0,11, 0.00,60.00,Saturday
2232,216.41550951223815
2233,142.1453323621225
5265,77315.49049848529
2,6,10, 6, 0,12, 0.00,60.00,Saturday
2232,207.88799612165256
2233,138.349883856747
5265,71461.19539885178
2,6,10, 6, 0,13, 0.00,60.00,Saturday
2232,202.71028642872106
2233,133.1408361572784
5265,60027.249158196
2,6,10, 6, 0,14, 0.00,60.00,Saturday
2232,195.01733498219196
2233,124.64606308230539
5265,52716.39150605052
2,6,10, 6, 0,15, 0.00,60.00,Saturday
2232,174.71950014133754
2233,109.18507659794357
5265,52901.90953420754
2,6,10, 6, 0,16, 0.00,60.00,Saturday
2232,128.9744888416096
2233,79.93139540441051
5265,47742.450718410284
2,6,10, 6, 0,17, 0.00,60.00,Saturday
2232,65.28124824287879
2233,40.18883483034325
5265,39062.84939258679
2,6,10, 6, 0,18, 0.00,60.00,Saturday
2232,6.691231781616248
2233,4.058328381812801
5265,35196.17321883032
2,6,10, 6, 0,19, 0.00,60.00,Saturday
2232,0.0
2233,0.0
5265,28437.524266959594
2,6,10, 6, 0,20, 0.00,60.00,Saturday
2232,0.0
2233,0.0
5265,11550.653583167235
2,6,10, 6, 0,21, 0.00,60.00,Saturday
2232,0.0
2233,0.0
5265,11437.326617759098
2,6,10, 6, 0,22, 0.00,60.00,Saturday
2232,0.0
2233,0.0
5265,8659.929748262692
2,6,10, 6, 0,23, 0.00,60.00,Saturday
2232,0.0
2233,0.0
5265,8333.537838187729
2,6,10, 6, 0,24, 0.00,60.00,Saturday
2232,0.0
2233,0.0
5265,8163.660278728296
2,7,10, 7, 0, 1, 0.00,60.00,Sunday
2232,0.0
2233,0.0
5265,8111.202482247805
2,7,10, 7, 0, 2, 0.00,60.00,Sunday
2232,0.0
2233,0.0
5265,8090.155648342062
2,7,10, 7, 0, 3, 0.00,60.00,Sunday
2232,0.0
2233,0.0
5265,8062.37310243419
2,7,10, 7, 0, 4, 0.00,60.00,Sunday
2232,0.0
2233,0.0
5265,8018.734225066746
2,7,10, 7, 0, 5, 0.00,60.00,Sunday
2232,0.0
2233,0.0
5265,7971.564423304116
2,7,10, 7, 0, 6, 0.00,60.00,Sunday
2232,11.501675010689155
2233,7.258172117600842
5265,7952.251588246166
2,7,10, 7, 0, 7, 0.00,60.00,Sunday
2232,72.88052187432538
2233,46.15540099905028
5265,7997.518313342406
2,7,10, 7, 0, 8, 0.00,60.00,Sunday
2232,155.12688142663419
2233,96.20634873026113
5265,8085.846554862585
2,7,10, 7, 0, 9, 0.00,60.00,Sunday
2232,206.26399149377583
2233,128.8549626423614
5265,8193.984124693228
2,7,10, 7, 0,10, 0.00,60.00,Sunday
2232,215.78418137309652
2233,137.89838299512716
5265,8297.56981592204
2,7,10, 7, 0,11, 0.00,60.00,Sunday
2232,203.90209590800064
2233,133.66224867472415
5265,8360.658693805277
2,7,10, 7, 0,12, 0.00,60.00,Sunday
2232,190.07765442239654
2233,125.89622394591207
5265,8362.419651984199
2,7,10, 7, 0,13, 0.00,60.00,Sunday
2232,185.27760671273072
2233,121.44472679065608
5265,8302.59724577555
2,7,10, 7, 0,14, 0.00,60.00,Sunday
2232,178.0464118646955
2233,113.8526458758206
5265,8241.296296139868
2,7,10, 7, 0,15, 0.00,60.00,Sunday
2232,165.9608808935043
2233,103.82961497403659
5265,8225.907498645138
2,7,10, 7, 0,16, 0.00,60.00,Sunday
2232,123.98615553986686
2233,76.98288932794417
5265,8280.416538718475
2,7,10, 7, 0,17, 0.00,60.00,Sunday
2232,62.70165423556575
2233,38.720777949339659
5265,8343.284995973807
2,7,10, 7, 0,18, 0.00,60.00,Sunday
2232,6.4431027189125349
2233,3.926631521791725
5265,8378.32262599058
2,7,10, 7, 0,19, 0.00,60.00,Sunday
2232,0.0
2233,0.0
5265,8344.888557940634
2,7,10, 7, 0,20, 0.00,60.00,Sunday
2232,0.0
2233,0.0
5265,8290.82378337969
2,7,10, 7, 0,21, 0.00,60.00,Sunday
2232,0.0
2233,0.0
5265,8239.39428167459
2,7,10, 7, 0,22, 0.00,60.00,Sunday
2232,0.0
2233,0.0
5265,8180.910664430896
2,7,10, 7, 0,23, 0.00,60.00,Sunday
2232,0.0
2233,0.0
5265,8115.165312058459
2,7,10, 7, 0,24, 0.00,60.00,Sunday
2232,0.0
2233,0.0
5265,8071.751144707306
2,8,10, 8, 0, 1, 0.00,60.00,Monday
2232,0.0
2233,0.0
5265,7698.376667773341
2,8,10, 8, 0, 2, 0.00,60.00,Monday
2232,0.0
2233,0.0
5265,7742.621717960744
2,8,10, 8, 0, 3, 0.00,60.00,Monday
2232,0.0
2233,0.0
5265,7689.925948879467
2,8,10, 8, 0, 4, 0.00,60.00,Monday
2232,0.0
2233,0.0
5265,7615.853338119475
2,8,10, 8, 0, 5, 0.00,60.00,Monday
2232,0.0
2233,0.0
5265,7548.412174881789
2,8,10, 8, 0, 6, 0.00,60.00,Monday
2232,12.230818297469116
2233,7.698174497599861
5265,7495.091409304536
2,8,10, 8, 0, 7, 0.00,60.00,Monday
2232,73.89182813542331
2233,46.81340382155316
5265,7471.492238146036
2,8,10, 8, 0, 8, 0.00,60.00,Monday
2232,145.25655354453699
2233,90.10521516378729
5265,29274.053845859173
2,8,10, 8, 0, 9, 0.00,60.00,Monday
2232,202.1228049491098
2233,126.31056644612936
5265,60329.55862856596
2,8,10, 8, 0,10, 0.00,60.00,Monday
2232,216.67322131800769
2233,138.46791452651275
5265,88209.76860122707
2,8,10, 8, 0,11, 0.00,60.00,Monday
2232,207.6386279745883
2233,136.19608361072097
5265,90382.80833215238
2,8,10, 8, 0,12, 0.00,60.00,Monday
2232,191.60232409907727
2233,126.94343053832644
5265,129638.87493534725
2,8,10, 8, 0,13, 0.00,60.00,Monday
2232,176.788600329641
2233,115.90904648597354
5265,132296.78843596718
2,8,10, 8, 0,14, 0.00,60.00,Monday
2232,154.11623231022348
2233,99.01728614573364
5265,165472.909355166
2,8,10, 8, 0,15, 0.00,60.00,Monday
2232,127.86993616244162
2233,80.62571056425385
5265,174776.83976231016
2,8,10, 8, 0,16, 0.00,60.00,Monday
2232,89.83337159338505
2233,56.26048296884994
5265,156130.41335377153
2,8,10, 8, 0,17, 0.00,60.00,Monday
2232,42.76365985022537
2233,27.044765860648714
5265,135066.12095610635
2,8,10, 8, 0,18, 0.00,60.00,Monday
2232,4.441048508873469
2233,2.7966759802527578
5265,52367.77156877942
2,8,10, 8, 0,19, 0.00,60.00,Monday
2232,0.0
2233,0.0
5265,25739.4679833514
2,8,10, 8, 0,20, 0.00,60.00,Monday
2232,0.0
2233,0.0
5265,10855.946360711298
2,8,10, 8, 0,21, 0.00,60.00,Monday
2232,0.0
2233,0.0
5265,8427.067171104942
2,8,10, 8, 0,22, 0.00,60.00,Monday
2232,0.0
2233,0.0
5265,7978.519323328625
2,8,10, 8, 0,23, 0.00,60.00,Monday
2232,0.0
2233,0.0
5265,7942.427727076604
2,8,10, 8, 0,24, 0.00,60.00,Monday
2232,0.0
2233,0.0
5265,7914.250342202453
2,9,10, 9, 0, 1, 0.00,60.00,Tuesday
2232,0.0
2233,0.0
5265,7118.495555056973
2,9,10, 9, 0, 2, 0.00,60.00,Tuesday
2232,0.0
2233,0.0
5265,7207.281565435503
2,9,10, 9, 0, 3, 0.00,60.00,Tuesday
2232,0.0
2233,0.0
5265,7154.349535514295
2,9,10, 9, 0, 4, 0.00,60.00,Tuesday
2232,0.0
2233,0.0
5265,7080.629733334416
2,9,10, 9, 0, 5, 0.00,60.00,Tuesday
2232,0.0
2233,0.0
5265,7002.569997388203
2,9,10, 9, 0, 6, 0.00,60.00,Tuesday
2232,22.843358731046324
2233,12.571815109257708
5265,7130.039205391812
2,9,10, 9, 0, 7, 0.00,60.00,Tuesday
2232,133.2595952211636
2233,80.18827341956295
5265,7518.739944541361
2,9,10, 9, 0, 8, 0.00,60.00,Tuesday
2232,238.45555797930039
2233,143.50742441432858
5265,20821.88286234628
2,9,10, 9, 0, 9, 0.00,60.00,Tuesday
2232,285.9147286390177
2233,175.04962096256814
5265,73580.27454968059
2,9,10, 9, 0,10, 0.00,60.00,Tuesday
2232,273.3020068361711
2233,172.1948718584861
5265,105802.16524354521
2,9,10, 9, 0,11, 0.00,60.00,Tuesday
2232,231.74673801039322
2233,151.37566265291097
5265,114569.86337199506
2,9,10, 9, 0,12, 0.00,60.00,Tuesday
2232,206.68108620649333
2233,137.78753194197646
5265,152515.74335141525
2,9,10, 9, 0,13, 0.00,60.00,Tuesday
2232,215.07702989600629
2233,140.83542536249019
5265,144409.74563089107
2,9,10, 9, 0,14, 0.00,60.00,Tuesday
2232,226.46777040994324
2233,143.11851276028166
5265,168095.51463243963
2,9,10, 9, 0,15, 0.00,60.00,Tuesday
2232,197.01580037256245
2233,121.18838395503133
5265,147038.68868657424
2,9,10, 9, 0,16, 0.00,60.00,Tuesday
2232,131.12684286752896
2233,80.884993472508
5265,149418.42702746197
2,9,10, 9, 0,17, 0.00,60.00,Tuesday
2232,53.151415562534477
2233,33.256821421929178
5265,125277.24251466495
2,9,10, 9, 0,18, 0.00,60.00,Tuesday
2232,5.032137960515498
2233,3.1376448176064755
5265,111272.44913226261
2,9,10, 9, 0,19, 0.00,60.00,Tuesday
2232,0.0
2233,0.0
5265,66334.83006347544
2,9,10, 9, 0,20, 0.00,60.00,Tuesday
2232,0.0
2233,0.0
5265,32261.00407953699
2,9,10, 9, 0,21, 0.00,60.00,Tuesday
2232,0.0
2233,0.0
5265,8657.365337249343
2,9,10, 9, 0,22, 0.00,60.00,Tuesday
2232,0.0
2233,0.0
5265,8393.891789855055
2,9,10, 9, 0,23, 0.00,60.00,Tuesday
2232,0.0
2233,0.0
5265,8303.11011072275
2,9,10, 9, 0,24, 0.00,60.00,Tuesday
2232,0.0
2233,0.0
5265,8257.114984990514
2,10,10,10, 0, 1, 0.00,60.00,Wednesday
2232,0.0
2233,0.0
5265,8227.520130876934
2,10,10,10, 0, 2, 0.00,60.00,Wednesday
2232,0.0
2233,0.0
5265,8202.301203417288
2,10,10,10, 0, 3, 0.00,60.00,Wednesday
2232,0.0
2233,0.0
5265,8173.120012358976
2,10,10,10, 0, 4, 0.00,60.00,Wednesday
2232,0.0
2233,0.0
5265,8123.695856437897
2,10,10,10, 0, 5, 0.00,60.00,Wednesday
2232,0.0
2233,0.0
5265,8004.223856137913
2,10,10,10, 0, 6, 0.00,60.00,Wednesday
2232,12.635771280432783
2233,7.935755442362588
5265,8025.32163806337
2,10,10,10, 0, 7, 0.00,60.00,Wednesday
2232,75.03416153112222
2233,47.4780659119268
5265,8193.973597584341
2,10,10,10, 0, 8, 0.00,60.00,Wednesday
2232,142.5933132372027
2233,88.34465888427485
5265,25395.92305440037
2,10,10,10, 0, 9, 0.00,60.00,Wednesday
2232,216.26768808349474
2233,135.02368009383165
5265,80937.03948565091
2,10,10,10, 0,10, 0.00,60.00,Wednesday
2232,232.26229237651254
2233,148.39181620593193
5265,113535.66595216735
2,10,10,10, 0,11, 0.00,60.00,Wednesday
2232,212.305143140647
2233,139.51845197132733
5265,135568.48255048824
2,10,10,10, 0,12, 0.00,60.00,Wednesday
2232,177.9630828512827
2233,119.08707808672313
5265,171797.0015835306
2,10,10,10, 0,13, 0.00,60.00,Wednesday
2232,202.22268691111149
2233,132.3716472364459
5265,172075.3852376791
2,10,10,10, 0,14, 0.00,60.00,Wednesday
2232,222.50119160215295
2233,140.47840988442224
5265,172349.08140390129
2,10,10,10, 0,15, 0.00,60.00,Wednesday
2232,214.686648650081
2233,131.73828414589807
5265,178722.44441488773
2,10,10,10, 0,16, 0.00,60.00,Wednesday
2232,165.4372536561638
2233,100.03182901227074
5265,144704.32387494669
2,10,10,10, 0,17, 0.00,60.00,Wednesday
2232,84.97148335093336
2233,50.786053748654179
5265,83126.94133805315
2,10,10,10, 0,18, 0.00,60.00,Wednesday
2232,8.95962118243693
2233,5.198993863114381
5265,52928.220861403686
2,10,10,10, 0,19, 0.00,60.00,Wednesday
2232,0.0
2233,0.0
5265,23332.621091336565
2,10,10,10, 0,20, 0.00,60.00,Wednesday
2232,0.0
2233,0.0
5265,9363.135168454479
2,10,10,10, 0,21, 0.00,60.00,Wednesday
2232,0.0
2233,0.0
5265,8906.097268901556
2,10,10,10, 0,22, 0.00,60.00,Wednesday
2232,0.0
2233,0.0
5265,8461.424292333237
2,10,10,10, 0,23, 0.00,60.00,Wednesday
2232,0.0
2233,0.0
5265,8429.75455117574
2,10,10,10, 0,24, 0.00,60.00,Wednesday
2232,0.0
2233,0.0
5265,8392.421807566958
2,11,10,11, 0, 1, 0.00,60.00,Thursday
2232,0.0
2233,0.0
5265,8341.804300886108
2,11,10,11, 0, 2, 0.00,60.00,Thursday
2232,0.0
2233,0.0
5265,8281.248006173311
2,11,10,11, 0, 3, 0.00,60.00,Thursday
2232,0.0
2233,0.0
5265,8241.326451603132
2,11,10,11, 0, 4, 0.00,60.00,Thursday
2232,0.0
2233,0.0
5265,8214.779396360484
2,11,10,11, 0, 5, 0.00,60.00,Thursday
2232,0.0
2233,0.0
5265,8188.431172257285
2,11,10,11, 0, 6, 0.00,60.00,Thursday
2232,14.09180750337027
2233,8.778290599500574
5265,8210.104326549166
2,11,10,11, 0, 7, 0.00,60.00,Thursday
2232,85.06882458176304
2233,53.689963904574288
5265,8316.259039214901
2,11,10,11, 0, 8, 0.00,60.00,Thursday
2232,161.1610576776848
2233,99.89847331560533
5265,23841.304298915366
2,11,10,11, 0, 9, 0.00,60.00,Thursday
2232,208.2835004644951
2233,130.06630271355255
5265,114294.39010982959
2,11,10,11, 0,10, 0.00,60.00,Thursday
2232,217.0362384150901
2233,138.66685965998145
5265,148732.71421859673
2,11,10,11, 0,11, 0.00,60.00,Thursday
2232,208.43827339050493
2233,136.67533049571365
5265,167397.05805223264
2,11,10,11, 0,12, 0.00,60.00,Thursday
2232,202.86477657635053
2233,134.6951268697409
5265,169387.46940710888
2,11,10,11, 0,13, 0.00,60.00,Thursday
2232,201.95807531510426
2233,132.67274798427708
5265,172179.06898911837
2,11,10,11, 0,14, 0.00,60.00,Thursday
2232,199.99833015542985
2233,127.63545016428985
5265,184378.43612080735
2,11,10,11, 0,15, 0.00,60.00,Thursday
2232,178.91940129071669
2233,111.76929797964219
5265,180287.19520647356
2,11,10,11, 0,16, 0.00,60.00,Thursday
2232,128.01182598524736
2233,79.16657802182935
5265,181889.17237612629
2,11,10,11, 0,17, 0.00,60.00,Thursday
2232,61.37988002777951
2233,37.79872379905176
5265,168316.49390294867
2,11,10,11, 0,18, 0.00,60.00,Thursday
2232,6.265793052725175
2233,3.8104206675257417
5265,88468.09575751437
2,11,10,11, 0,19, 0.00,60.00,Thursday
2232,0.0
2233,0.0
5265,63635.61657467206
2,11,10,11, 0,20, 0.00,60.00,Thursday
2232,0.0
2233,0.0
5265,45701.25363686597
2,11,10,11, 0,21, 0.00,60.00,Thursday
2232,0.0
2233,0.0
5265,8466.666047906043
2,11,10,11, 0,22, 0.00,60.00,Thursday
2232,0.0
2233,0.0
5265,8421.903071748247
2,11,10,11, 0,23, 0.00,60.00,Thursday
2232,0.0
2233,0.0
5265,8379.96448065601
2,11,10,11, 0,24, 0.00,60.00,Thursday
2232,0.0
2233,0.0
5265,8333.445606882622
2,12,10,12, 0, 1, 0.00,60.00,Friday
2232,0.0
2233,0.0
5265,8261.998467784719
2,12,10,12, 0, 2, 0.00,60.00,Friday
2232,0.0
2233,0.0
5265,8183.592451689925
2,12,10,12, 0, 3, 0.00,60.00,Friday
2232,0.0
2233,0.0
5265,8149.8225089277
2,12,10,12, 0, 4, 0.00,60.00,Friday
2232,0.0
2233,0.0
5265,8186.35427347048
2,12,10,12, 0, 5, 0.00,60.00,Friday
2232,0.0
2233,0.0
5265,8223.872679040307
2,12,10,12, 0, 6, 0.00,60.00,Friday
2232,13.427750743259873
2233,8.400589421023588
5265,8258.686432764758
2,12,10,12, 0, 7, 0.00,60.00,Friday
2232,83.34119593484917
2233,52.60814985464436
5265,8329.008309524916
2,12,10,12, 0, 8, 0.00,60.00,Friday
2232,164.43394948922689
2233,101.97668425342958
5265,29218.277632498546
2,12,10,12, 0, 9, 0.00,60.00,Friday
2232,214.2495119907234
2233,133.75331466269328
5265,91784.92754309079
2,12,10,12, 0,10, 0.00,60.00,Friday
2232,222.23327153722347
2233,141.94905792065925
5265,150581.45620920845
2,12,10,12, 0,11, 0.00,60.00,Friday
2232,210.14213518150755
2233,137.84558340013
5265,148979.12796781734
2,12,10,12, 0,12, 0.00,60.00,Friday
2232,199.4328426114831
2233,132.32139943244116
5265,151816.20811391003
2,12,10,12, 0,13, 0.00,60.00,Friday
2232,194.21822895896967
2233,127.40852062134589
5265,161173.2083014819
2,12,10,12, 0,14, 0.00,60.00,Friday
2232,189.31439794745814
2233,121.016957130013
5265,168559.49395646447
2,12,10,12, 0,15, 0.00,60.00,Friday
2232,169.27224205307966
2233,105.81484603429597
5265,148748.75703896106
2,12,10,12, 0,16, 0.00,60.00,Friday
2232,123.23995599678153
2233,76.45863471197775
5265,131572.9648168677
2,12,10,12, 0,17, 0.00,60.00,Friday
2232,57.732236583823887
2233,35.73844394008553
5265,122015.85385035417
2,12,10,12, 0,18, 0.00,60.00,Friday
2232,5.755732625889631
2233,3.525785451791201
5265,56021.64856766024
2,12,10,12, 0,19, 0.00,60.00,Friday
2232,0.0
2233,0.0
5265,29686.72647204244
2,12,10,12, 0,20, 0.00,60.00,Friday
2232,0.0
2233,0.0
5265,18672.198826466443
2,12,10,12, 0,21, 0.00,60.00,Friday
2232,0.0
2233,0.0
5265,13465.181014624715
2,12,10,12, 0,22, 0.00,60.00,Friday
2232,0.0
2233,0.0
5265,8281.713703951324
2,12,10,12, 0,23, 0.00,60.00,Friday
2232,0.0
2233,0.0
5265,8184.047521500495
2,12,10,12, 0,24, 0.00,60.00,Friday
2232,0.0
2233,0.0
5265,8116.356621736838
2,13,10,13, 0, 1, 0.00,60.00,Saturday
2232,0.0
2233,0.0
5265,8106.180895712106
2,13,10,13, 0, 2, 0.00,60.00,Saturday
2232,0.0
2233,0.0
5265,8109.302913806266
2,13,10,13, 0, 3, 0.00,60.00,Saturday
2232,0.0
2233,0.0
5265,8112.384528282621
2,13,10,13, 0, 4, 0.00,60.00,Saturday
2232,0.0
2233,0.0
5265,8106.488888246743
2,13,10,13, 0, 5, 0.00,60.00,Saturday
2232,0.0
2233,0.0
5265,8100.743542255955
2,13,10,13, 0, 6, 0.00,60.00,Saturday
2232,14.069332696565122
2233,8.766419137678867
5265,8130.514315456966
2,13,10,13, 0, 7, 0.00,60.00,Saturday
2232,84.82969541102925
2233,53.54939680980558
5265,8239.375064396074
2,13,10,13, 0, 8, 0.00,60.00,Saturday
2232,161.25346744428954
2233,99.96943415750593
5265,8384.500569184725
2,13,10,13, 0, 9, 0.00,60.00,Saturday
2232,213.50699061201522
2233,133.2930464720762
5265,58306.22498839366
2,13,10,13, 0,10, 0.00,60.00,Saturday
2232,223.76536882312653
2233,142.92146208255259
5265,82807.54528308769
2,13,10,13, 0,11, 0.00,60.00,Saturday
2232,211.52318083457556
2233,138.7832050612176
5265,93784.4908512116
2,13,10,13, 0,12, 0.00,60.00,Saturday
2232,201.63979401084837
2233,133.92950034250539
5265,84307.9190016538
2,13,10,13, 0,13, 0.00,60.00,Saturday
2232,198.81213164621327
2233,130.5454000860059
5265,63975.160739196384
2,13,10,13, 0,14, 0.00,60.00,Saturday
2232,196.80368675063509
2233,125.80328001091374
5265,57377.87405625854
2,13,10,13, 0,15, 0.00,60.00,Saturday
2232,175.51110547088039
2233,109.65167529819479
5265,57454.42608125165
2,13,10,13, 0,16, 0.00,60.00,Saturday
2232,127.63037085824552
2233,78.84226073417874
5265,51700.89549890637
2,13,10,13, 0,17, 0.00,60.00,Saturday
2232,59.533292583047167
2233,36.703149756326819
5265,42132.832363907524
2,13,10,13, 0,18, 0.00,60.00,Saturday
2232,5.926732990735375
2233,3.607031441328115
5265,36011.12878871522
2,13,10,13, 0,19, 0.00,60.00,Saturday
2232,0.0
2233,0.0
5265,28637.980488356585
2,13,10,13, 0,20, 0.00,60.00,Saturday
2232,0.0
2233,0.0
5265,12608.786766737308
2,13,10,13, 0,21, 0.00,60.00,Saturday
2232,0.0
2233,0.0
5265,12456.051674440028
2,13,10,13, 0,22, 0.00,60.00,Saturday
2232,0.0
2233,0.0
5265,8686.196754520204
2,13,10,13, 0,23, 0.00,60.00,Saturday
2232,0.0
2233,0.0
5265,8439.505433815648
2,13,10,13, 0,24, 0.00,60.00,Saturday