Program Version,EnergyPlus, Version 8.7.0-78a111df4a, YMD=2019.12.26 09:39
1,5,Environment Title[],Latitude[deg],Longitude[deg],Time Zone[],Elevation[m]
2,6,Day of Simulation[],Month[],Day of Month[],DST Indicator[1=yes 0=no],Hour[],StartMinute[],EndMinute[],DayType
3,3,Cumulative Day of Simulation[],Month[],Day of Month[],DST Indicator[1=yes 0=no],DayType  ! When Daily Report Variables Requested
4,2,Cumulative Days of Simulation[],Month[]  ! When Monthly Report Variables Requested
5,1,Cumulative Days of Simulation[] ! When Run Period Report Variables Requested
2232,1,AF305DAYLIGHINGCONTROL,Daylighting Reference Point 1 Illuminance [lux] !Hourly
2233,1,AF305DAYLIGHINGCONTROL,Daylighting Reference Point 2 Illuminance [lux] !Hourly
5265,1,Whole Building,Facility Total Electric Demand Power [W] !Hourly
End of Data Dictionary
1,RUNPERIOD,  10.30, 123.97,   8.00,  24.00
2,1,10, 1, 0, 1, 0.00,60.00,Monday
2232,0.0
2233,0.0
5265,7959.2340340260525
2,1,10, 1, 0, 2, 0.00,60.00,Monday
2232,0.0
2233,0.0
5265,7873.480624506763
2,1,10, 1, 0, 3, 0.00,60.00,Monday
2232,0.0
2233,0.0
5265,7736.39281216278
2,1,10, 1, 0, 4, 0.00,60.00,Monday
2232,0.0
2233,0.0
5265,7669.686931190198
2,1,10, 1, 0, 5, 0.00,60.00,Monday
2232,0.0
2233,0.0
5265,7605.573975803229
2,1,10, 1, 0, 6, 0.00,60.00,Monday
2232,79.64581877581735
2233,41.17941724862684
5265,7665.214675931843
2,1,10, 1, 0, 7, 0.00,60.00,Monday
2232,416.109151032306
2233,244.514142929903
5265,7801.817526176565
2,1,10, 1, 0, 8, 0.00,60.00,Monday
2232,667.5387242401662
2233,399.86305992593796
5265,29701.938650045155
2,1,10, 1, 0, 9, 0.00,60.00,Monday
2232,776.406983461819
2233,477.0684088276698
5265,61848.503311922774
2,1,10, 1, 0,10, 0.00,60.00,Monday
2232,740.1195068972978
2233,469.21670090850008
5265,96199.4209895344
2,1,10, 1, 0,11, 0.00,60.00,Monday
2232,624.8875209846332
2233,410.7668828105941
5265,97931.51871653287
2,1,10, 1, 0,12, 0.00,60.00,Monday
2232,513.9353033341544
2233,345.46213027547517
5265,141604.5980376286
2,1,10, 1, 0,13, 0.00,60.00,Monday
2232,531.1821069847016
2233,351.31638728110269
5265,145039.4041040395
2,1,10, 1, 0,14, 0.00,60.00,Monday
2232,527.649218994237
2233,339.4389420380322
5265,170319.7864759868
2,1,10, 1, 0,15, 0.00,60.00,Monday
2232,424.1477372753495
2233,267.161632384031
5265,177555.71169589158
2,1,10, 1, 0,16, 0.00,60.00,Monday
2232,278.4060679664044
2233,174.6658433863288
5265,158697.6837167763
2,1,10, 1, 0,17, 0.00,60.00,Monday
2232,110.88371829244477
2233,70.63923709405413
5265,137192.773800047
2,1,10, 1, 0,18, 0.00,60.00,Monday
2232,12.580548026779839
2233,8.017122470723012
5265,52784.818975842885
2,1,10, 1, 0,19, 0.00,60.00,Monday
2232,0.0
2233,0.0
5265,25999.083045837124
2,1,10, 1, 0,20, 0.00,60.00,Monday
2232,0.0
2233,0.0
5265,10994.476428200645
2,1,10, 1, 0,21, 0.00,60.00,Monday
2232,0.0
2233,0.0
5265,8577.795462242471
2,1,10, 1, 0,22, 0.00,60.00,Monday
2232,0.0
2233,0.0
5265,8150.562530488366
2,1,10, 1, 0,23, 0.00,60.00,Monday
2232,0.0
2233,0.0
5265,8136.888514586783
2,1,10, 1, 0,24, 0.00,60.00,Monday
2232,0.0
2233,0.0
5265,8119.398837225795
2,2,10, 2, 0, 1, 0.00,60.00,Tuesday
2232,0.0
2233,0.0
5265,7867.88330061716
2,2,10, 2, 0, 2, 0.00,60.00,Tuesday
2232,0.0
2233,0.0
5265,7777.1476081734
2,2,10, 2, 0, 3, 0.00,60.00,Tuesday
2232,0.0
2233,0.0
5265,7667.301407217766
2,2,10, 2, 0, 4, 0.00,60.00,Tuesday
2232,0.0
2233,0.0
5265,7551.190045651364
2,2,10, 2, 0, 5, 0.00,60.00,Tuesday
2232,0.0
2233,0.0
5265,7424.286700321288
2,2,10, 2, 0, 6, 0.00,60.00,Tuesday
2232,81.6596393984838
2233,41.98654604388904
5265,7536.338552744021
2,2,10, 2, 0, 7, 0.00,60.00,Tuesday
2232,431.0587904293928
2233,250.86062074480354
5265,7972.732579801817
2,2,10, 2, 0, 8, 0.00,60.00,Tuesday
2232,700.5083725144641
2233,414.9756764004853
5265,21084.495961413428
2,2,10, 2, 0, 9, 0.00,60.00,Tuesday
2232,801.4179552437969
2233,490.8743235568116
5265,82346.46017097096
2,2,10, 2, 0,10, 0.00,60.00,Tuesday
2232,754.7499297014584
2233,477.83237994491267
5265,115205.90929368767
2,2,10, 2, 0,11, 0.00,60.00,Tuesday
2232,606.3595141807824
2233,398.61597145066278
5265,120925.85716029218
2,2,10, 2, 0,12, 0.00,60.00,Tuesday
2232,531.9691734250592
2233,356.7858703888305
5265,151738.63282178684
2,2,10, 2, 0,13, 0.00,60.00,Tuesday
2232,531.503399032045
2233,350.8231543423099
5265,136588.60570381696
2,2,10, 2, 0,14, 0.00,60.00,Tuesday
2232,464.5833708445821
2233,299.21929635885268
5265,154141.47964003215
2,2,10, 2, 0,15, 0.00,60.00,Tuesday
2232,395.6252448207409
2233,249.68048561679735
5265,130313.27269351721
2,2,10, 2, 0,16, 0.00,60.00,Tuesday
2232,279.44479306514969
2233,175.25336394835109
5265,135051.86097110826
2,2,10, 2, 0,17, 0.00,60.00,Tuesday
2232,139.99356990628267
2233,88.75366855852467
5265,110847.06019887266
2,2,10, 2, 0,18, 0.00,60.00,Tuesday
2232,15.866103986456358
2233,10.014450504281614
5265,109441.19909481943
2,2,10, 2, 0,19, 0.00,60.00,Tuesday
2232,0.0
2233,0.0
5265,64249.072991787216
2,2,10, 2, 0,20, 0.00,60.00,Tuesday
2232,0.0
2233,0.0
5265,31286.681564552044
2,2,10, 2, 0,21, 0.00,60.00,Tuesday
2232,0.0
2233,0.0
5265,8632.09762611168
2,2,10, 2, 0,22, 0.00,60.00,Tuesday
2232,0.0
2233,0.0
5265,8386.152243243805
2,2,10, 2, 0,23, 0.00,60.00,Tuesday
2232,0.0
2233,0.0
5265,8335.026467204432
2,2,10, 2, 0,24, 0.00,60.00,Tuesday
2232,0.0
2233,0.0
5265,8295.401821224472
2,3,10, 3, 0, 1, 0.00,60.00,Wednesday
2232,0.0
2233,0.0
5265,8218.903132084177
2,3,10, 3, 0, 2, 0.00,60.00,Wednesday
2232,0.0
2233,0.0
5265,8121.950194455774
2,3,10, 3, 0, 3, 0.00,60.00,Wednesday
2232,0.0
2233,0.0
5265,7992.122818873356
2,3,10, 3, 0, 4, 0.00,60.00,Wednesday
2232,0.0
2233,0.0
5265,7928.509336255766
2,3,10, 3, 0, 5, 0.00,60.00,Wednesday
2232,0.0
2233,0.0
5265,7856.33672454124
2,3,10, 3, 0, 6, 0.00,60.00,Wednesday
2232,33.31101756327609
2233,21.0653025499024
5265,7897.641580376349
2,3,10, 3, 0, 7, 0.00,60.00,Wednesday
2232,206.2459855684775
2233,131.2450466112223
5265,8081.325108747825
2,3,10, 3, 0, 8, 0.00,60.00,Wednesday
2232,429.10238277004836
2233,267.65260002159558
5265,25186.20994524461
2,3,10, 3, 0, 9, 0.00,60.00,Wednesday
2232,606.5261539600224
2233,380.96918129077207
5265,75691.05416364469
2,3,10, 3, 0,10, 0.00,60.00,Wednesday
2232,633.6347456490753
2233,407.15074783107436
5265,112756.83657608093
2,3,10, 3, 0,11, 0.00,60.00,Wednesday
2232,588.8379567044107
2233,388.73221587904939
5265,133384.79489457713
2,3,10, 3, 0,12, 0.00,60.00,Wednesday
2232,535.2219181939082
2233,356.8344686901409
5265,164777.69265830369
2,3,10, 3, 0,13, 0.00,60.00,Wednesday
2232,479.9627898662865
2233,316.50180540100839
5265,155796.1779079723
2,3,10, 3, 0,14, 0.00,60.00,Wednesday
2232,430.0889492447657
2233,277.76876674204189
5265,152865.20236680372
2,3,10, 3, 0,15, 0.00,60.00,Wednesday
2232,409.7697122705666
2233,258.38051980791087
5265,158308.40779137056
2,3,10, 3, 0,16, 0.00,60.00,Wednesday
2232,332.12029987078958
2233,207.71243330831468
5265,123409.38186691758
2,3,10, 3, 0,17, 0.00,60.00,Wednesday
2232,176.15696431392318
2233,109.54764310894922
5265,68402.49240315576
2,3,10, 3, 0,18, 0.00,60.00,Wednesday
2232,21.289600762041066
2233,13.003064573166086
5265,52188.31736217005
2,3,10, 3, 0,19, 0.00,60.00,Wednesday
2232,0.0
2233,0.0
5265,22663.04861548352
2,3,10, 3, 0,20, 0.00,60.00,Wednesday
2232,0.0
2233,0.0
5265,9042.397569858804
2,3,10, 3, 0,21, 0.00,60.00,Wednesday
2232,0.0
2233,0.0
5265,8519.656976130174
2,3,10, 3, 0,22, 0.00,60.00,Wednesday
2232,0.0
2233,0.0
5265,8099.8497191630195
2,3,10, 3, 0,23, 0.00,60.00,Wednesday
2232,0.0
2233,0.0
5265,8126.1669229825975
2,3,10, 3, 0,24, 0.00,60.00,Wednesday
2232,0.0
2233,0.0
5265,8123.567146775113
2,4,10, 4, 0, 1, 0.00,60.00,Thursday
2232,0.0
2233,0.0
5265,8059.445665957645
2,4,10, 4, 0, 2, 0.00,60.00,Thursday
2232,0.0
2233,0.0
5265,7984.257691591555
2,4,10, 4, 0, 3, 0.00,60.00,Thursday
2232,0.0
2233,0.0
5265,7923.5749176475265
2,4,10, 4, 0, 4, 0.00,60.00,Thursday
2232,0.0
2233,0.0
5265,7908.460090768509
2,4,10, 4, 0, 5, 0.00,60.00,Thursday
2232,0.0
2233,0.0
5265,7906.542687718092
2,4,10, 4, 0, 6, 0.00,60.00,Thursday
2232,41.088738686982157
2233,25.56346727512442
5265,7928.626864506714
2,4,10, 4, 0, 7, 0.00,60.00,Thursday
2232,254.90815072640863
2233,161.59559791269286
5265,8000.300629276187
2,4,10, 4, 0, 8, 0.00,60.00,Thursday
2232,505.39847394786156
2233,313.5999700744417
5265,22699.031137020433
2,4,10, 4, 0, 9, 0.00,60.00,Thursday
2232,625.2945305322079
2233,392.4778679648934
5265,96257.91241464978
2,4,10, 4, 0,10, 0.00,60.00,Thursday
2232,632.7329334299901
2233,406.692537970192
5265,132089.24011008649
2,4,10, 4, 0,11, 0.00,60.00,Thursday
2232,586.206854019705
2233,387.0292086411726
5265,157431.6174627827
2,4,10, 4, 0,12, 0.00,60.00,Thursday
2232,552.6305997581684
2233,369.0316110876372
5265,161777.51493169007
2,4,10, 4, 0,13, 0.00,60.00,Thursday
2232,539.3028663265845
2233,355.9481075070142
5265,164405.51670457258
2,4,10, 4, 0,14, 0.00,60.00,Thursday
2232,524.7433517553355
2233,337.4119436657032
5265,176301.92104449744
2,4,10, 4, 0,15, 0.00,60.00,Thursday
2232,489.4753717455362
2233,307.6608175417297
5265,165850.37631788074
2,4,10, 4, 0,16, 0.00,60.00,Thursday
2232,371.0669854904422
2233,230.0569702230647
5265,172087.5440698197
2,4,10, 4, 0,17, 0.00,60.00,Thursday
2232,191.17283325477696
2233,117.73711284068502
5265,160268.9705667204
2,4,10, 4, 0,18, 0.00,60.00,Thursday
2232,25.190134757980798
2233,15.170854697584025
5265,87294.92347332461
2,4,10, 4, 0,19, 0.00,60.00,Thursday
2232,0.0
2233,0.0
5265,62345.28797760471
2,4,10, 4, 0,20, 0.00,60.00,Thursday
2232,0.0
2233,0.0
5265,44474.35702236674
2,4,10, 4, 0,21, 0.00,60.00,Thursday
2232,0.0
2233,0.0
5265,8248.84657985771
2,4,10, 4, 0,22, 0.00,60.00,Thursday
2232,0.0
2233,0.0
5265,8236.80356546019
2,4,10, 4, 0,23, 0.00,60.00,Thursday
2232,0.0
2233,0.0
5265,8234.014732438978
2,4,10, 4, 0,24, 0.00,60.00,Thursday
2232,0.0
2233,0.0
5265,8190.4897343301345
2,5,10, 5, 0, 1, 0.00,60.00,Friday
2232,0.0
2233,0.0
5265,8093.750169465643
2,5,10, 5, 0, 2, 0.00,60.00,Friday
2232,0.0
2233,0.0
5265,7994.786715674317
2,5,10, 5, 0, 3, 0.00,60.00,Friday
2232,0.0
2233,0.0
5265,7930.291689937293
2,5,10, 5, 0, 4, 0.00,60.00,Friday
2232,0.0
2233,0.0
5265,7913.813525734309
2,5,10, 5, 0, 5, 0.00,60.00,Friday
2232,0.0
2233,0.0
5265,7905.567625255771
2,5,10, 5, 0, 6, 0.00,60.00,Friday
2232,61.51480390377416
2233,34.135903536287468
5265,7921.5474519447935
2,5,10, 5, 0, 7, 0.00,60.00,Friday
2232,342.496686610214
2233,209.2729089488994
5265,7979.774875078184
2,5,10, 5, 0, 8, 0.00,60.00,Friday
2232,546.0000560862551
2233,336.85331793864676
5265,28011.262216850588
2,5,10, 5, 0, 9, 0.00,60.00,Friday
2232,644.4329719330345
2233,402.9135654615384
5265,70132.30282234006
2,5,10, 5, 0,10, 0.00,60.00,Friday
2232,624.5577064401239
2233,401.36834110447986
5265,137496.2418018349
2,5,10, 5, 0,11, 0.00,60.00,Friday
2232,576.8113341208608
2233,380.7971218609454
5265,136026.00338442494
2,5,10, 5, 0,12, 0.00,60.00,Friday
2232,524.7996069692675
2233,352.1990437470493
5265,142402.15235681079
2,5,10, 5, 0,13, 0.00,60.00,Friday
2232,549.5354765201395
2233,361.918360720148
5265,156211.40937786853
2,5,10, 5, 0,14, 0.00,60.00,Friday
2232,616.5394301138316
2233,391.83208798776198
5265,166530.41294904278
2,5,10, 5, 0,15, 0.00,60.00,Friday
2232,584.6009337824812
2233,361.11371611057856
5265,145061.4159402554
2,5,10, 5, 0,16, 0.00,60.00,Friday
2232,397.8555776836238
2233,243.72062742446404
5265,126184.88369367649
2,5,10, 5, 0,17, 0.00,60.00,Friday
2232,189.43446753084525
2233,116.53407210938279
5265,116957.9457297778
2,5,10, 5, 0,18, 0.00,60.00,Friday
2232,20.705631514813719
2233,12.547644982231822
5265,55629.600793639904
2,5,10, 5, 0,19, 0.00,60.00,Friday
2232,0.0
2233,0.0
5265,29410.674113013
2,5,10, 5, 0,20, 0.00,60.00,Friday
2232,0.0
2233,0.0
5265,18541.491253276505
2,5,10, 5, 0,21, 0.00,60.00,Friday
2232,0.0
2233,0.0
5265,13411.169614681488
2,5,10, 5, 0,22, 0.00,60.00,Friday
2232,0.0
2233,0.0
5265,8302.385256053747
2,5,10, 5, 0,23, 0.00,60.00,Friday
2232,0.0
2233,0.0
5265,8274.6610094604
2,5,10, 5, 0,24, 0.00,60.00,Friday
2232,0.0
2233,0.0
5265,8251.785744148436
2,6,10, 6, 0, 1, 0.00,60.00,Saturday
2232,0.0
2233,0.0
5265,8227.092290450148
2,6,10, 6, 0, 2, 0.00,60.00,Saturday
2232,0.0
2233,0.0
5265,8211.745087087356
2,6,10, 6, 0, 3, 0.00,60.00,Saturday
2232,0.0
2233,0.0
5265,8186.1763357901245
2,6,10, 6, 0, 4, 0.00,60.00,Saturday
2232,0.0
2233,0.0
5265,8165.1273473812025
2,6,10, 6, 0, 5, 0.00,60.00,Saturday
2232,0.0
2233,0.0
5265,8148.091930887143
2,6,10, 6, 0, 6, 0.00,60.00,Saturday
2232,30.3605682613655
2233,19.26652456100516
5265,8123.044671147877
2,6,10, 6, 0, 7, 0.00,60.00,Saturday
2232,186.29826919557727
2233,118.68087467363979
5265,8088.073747255706
2,6,10, 6, 0, 8, 0.00,60.00,Saturday
2232,384.39556354484878
2233,239.65088189005906
5265,8084.534057445607
2,6,10, 6, 0, 9, 0.00,60.00,Saturday
2232,584.7897535620066
2233,367.4015747794245
5265,42017.61734122157
2,6,10, 6, 0,10, 0.00,60.00,Saturday
2232,631.6661410928157
2233,405.9741174747896
5265,62863.03423794681
2,6,10, 6, 0,11, 0.00,60.00,Saturday
2232,585.4543415115558
2233,386.716429025992
5265,77315.49020975123
2,6,10, 6, 0,12, 0.00,60.00,Saturday
2232,562.464589290739
2233,376.39619056505446
5265,71461.19510251594
2,6,10, 6, 0,13, 0.00,60.00,Saturday
2232,548.3892513264201
2233,362.232686586861
5265,60027.24903530022
2,6,10, 6, 0,14, 0.00,60.00,Saturday
2232,527.4071175207329
2233,339.098368736771
5265,52716.39116955385
2,6,10, 6, 0,15, 0.00,60.00,Saturday
2232,472.3673531366412
2233,296.9984673950994
5265,52901.90920834328
2,6,10, 6, 0,16, 0.00,60.00,Saturday
2232,348.6041378466686
2233,217.36745584461674
5265,47742.450364832395
2,6,10, 6, 0,17, 0.00,60.00,Saturday
2232,176.39645527429244
2233,109.25095025397207
5265,39062.84901558182
2,6,10, 6, 0,18, 0.00,60.00,Saturday
2232,18.075189312493348
2233,11.029559565483544
5265,35196.17321883032
2,6,10, 6, 0,19, 0.00,60.00,Saturday
2232,0.0
2233,0.0
5265,28437.524266959594
2,6,10, 6, 0,20, 0.00,60.00,Saturday
2232,0.0
2233,0.0
5265,11550.653583167235
2,6,10, 6, 0,21, 0.00,60.00,Saturday
2232,0.0
2233,0.0
5265,11437.326617759098
2,6,10, 6, 0,22, 0.00,60.00,Saturday
2232,0.0
2233,0.0
5265,8659.929748262692
2,6,10, 6, 0,23, 0.00,60.00,Saturday
2232,0.0
2233,0.0
5265,8333.537838187729
2,6,10, 6, 0,24, 0.00,60.00,Saturday
2232,0.0
2233,0.0
5265,8163.660278728296
2,7,10, 7, 0, 1, 0.00,60.00,Sunday
2232,0.0
2233,0.0
5265,8111.202482247805
2,7,10, 7, 0, 2, 0.00,60.00,Sunday
2232,0.0
2233,0.0
5265,8090.155648342062
2,7,10, 7, 0, 3, 0.00,60.00,Sunday
2232,0.0
2233,0.0
5265,8062.37310243419
2,7,10, 7, 0, 4, 0.00,60.00,Sunday
2232,0.0
2233,0.0
5265,8018.734225066746
2,7,10, 7, 0, 5, 0.00,60.00,Sunday
2232,0.0
2233,0.0
5265,7971.564423304116
2,7,10, 7, 0, 6, 0.00,60.00,Sunday
2232,31.07773375544008
2233,19.722954841324034
5265,7952.251588246166
2,7,10, 7, 0, 7, 0.00,60.00,Sunday
2232,196.94358866649405
2233,125.43195979580269
5265,7997.518313342406
2,7,10, 7, 0, 8, 0.00,60.00,Sunday
2232,419.16171921450629
2233,261.496181754501
5265,8085.846554862585
2,7,10, 7, 0, 9, 0.00,60.00,Sunday
2232,557.4908956551042
2233,350.351230772542
5265,8193.984124693228
2,7,10, 7, 0,10, 0.00,60.00,Sunday
2232,583.4153065938577
2233,375.00467622250945
5265,8297.56981592204
2,7,10, 7, 0,11, 0.00,60.00,Sunday
2232,551.4760539331908
2233,363.5316643920435
5265,8360.658693805277
2,7,10, 7, 0,12, 0.00,60.00,Sunday
2232,514.1605727076304
2233,342.4305711620684
5265,8362.419651984199
2,7,10, 7, 0,13, 0.00,60.00,Sunday
2232,501.1550563700652
2233,330.3525355331828
5265,8302.59724577555
2,7,10, 7, 0,14, 0.00,60.00,Sunday
2232,481.48053328205887
2233,309.70479130772829
5265,8241.296296139868
2,7,10, 7, 0,15, 0.00,60.00,Sunday
2232,448.6792374379047
2233,282.41837625985496
5265,8225.907498645138
2,7,10, 7, 0,16, 0.00,60.00,Sunday
2232,335.1219978898998
2233,209.34460665472364
5265,8280.416538718475
2,7,10, 7, 0,17, 0.00,60.00,Sunday
2232,169.42971649012149
2233,105.25916537875088
5265,8343.284995973807
2,7,10, 7, 0,18, 0.00,60.00,Sunday
2232,17.405460661455967
2233,10.671497131252546
5265,8378.32262599058
2,7,10, 7, 0,19, 0.00,60.00,Sunday
2232,0.0
2233,0.0
5265,8344.888557940634
2,7,10, 7, 0,20, 0.00,60.00,Sunday
2232,0.0
2233,0.0
5265,8290.82378337969
2,7,10, 7, 0,21, 0.00,60.00,Sunday
2232,0.0
2233,0.0
5265,8239.39428167459
2,7,10, 7, 0,22, 0.00,60.00,Sunday
2232,0.0
2233,0.0
5265,8180.910664430896
2,7,10, 7, 0,23, 0.00,60.00,Sunday
2232,0.0
2233,0.0
5265,8115.165312058459
2,7,10, 7, 0,24, 0.00,60.00,Sunday
2232,0.0
2233,0.0
5265,8071.751144707306
2,8,10, 8, 0, 1, 0.00,60.00,Monday
2232,0.0
2233,0.0
5265,7698.376667773341
2,8,10, 8, 0, 2, 0.00,60.00,Monday
2232,0.0
2233,0.0
5265,7742.621717960744
2,8,10, 8, 0, 3, 0.00,60.00,Monday
2232,0.0
2233,0.0
5265,7689.925948879467
2,8,10, 8, 0, 4, 0.00,60.00,Monday
2232,0.0
2233,0.0
5265,7615.853338119475
2,8,10, 8, 0, 5, 0.00,60.00,Monday
2232,0.0
2233,0.0
5265,7548.412174881789
2,8,10, 8, 0, 6, 0.00,60.00,Monday
2232,33.046909416569459
2233,20.918318440575058
5265,7495.091409304536
2,8,10, 8, 0, 7, 0.00,60.00,Monday
2232,199.67808539716999
2233,127.22081653324335
5265,7471.492238146036
2,8,10, 8, 0, 8, 0.00,60.00,Monday
2232,392.49152387133457
2233,244.91269358307123
5265,29274.053845859173
2,8,10, 8, 0, 9, 0.00,60.00,Monday
2232,546.2978931167867
2233,343.431418688978
5265,60329.55862856596
2,8,10, 8, 0,10, 0.00,60.00,Monday
2232,585.8261681971068
2233,376.56005438519648
5265,88209.76839790086
2,8,10, 8, 0,11, 0.00,60.00,Monday
2232,561.6061303815219
2233,370.44225247241737
5265,90382.8081365984
2,8,10, 8, 0,12, 0.00,60.00,Monday
2232,518.2889904413613
2233,345.2814093257866
5265,129638.8747082514
2,8,10, 8, 0,13, 0.00,60.00,Monday
2232,478.1589354951879
2233,315.26177365453187
5265,132296.7882152863
2,8,10, 8, 0,14, 0.00,60.00,Monday
2232,416.73434014652386
2233,269.30074531615329
5265,165472.9093455711
2,8,10, 8, 0,15, 0.00,60.00,Monday
2232,345.67976830017718
2233,219.26106485103629
5265,174776.83974819305
2,8,10, 8, 0,16, 0.00,60.00,Monday
2232,242.8040403619068
2233,152.96874122738988
5265,156130.41335361283
2,8,10, 8, 0,17, 0.00,60.00,Monday
2232,115.57235750738409
2233,73.51316580685845
5265,135066.12095594294
2,8,10, 8, 0,18, 0.00,60.00,Monday
2232,12.00063486520031
2233,7.600756902891131
5265,52367.77156877942
2,8,10, 8, 0,19, 0.00,60.00,Monday
2232,0.0
2233,0.0
5265,25739.4679833514
2,8,10, 8, 0,20, 0.00,60.00,Monday
2232,0.0
2233,0.0
5265,10855.946360711298
2,8,10, 8, 0,21, 0.00,60.00,Monday
2232,0.0
2233,0.0
5265,8427.067171104942
2,8,10, 8, 0,22, 0.00,60.00,Monday
2232,0.0
2233,0.0
5265,7978.519323328625
2,8,10, 8, 0,23, 0.00,60.00,Monday
2232,0.0
2233,0.0
5265,7942.427727076604
2,8,10, 8, 0,24, 0.00,60.00,Monday
2232,0.0
2233,0.0
5265,7914.250342202453
2,9,10, 9, 0, 1, 0.00,60.00,Tuesday
2232,0.0
2233,0.0
5265,7118.495555056973
2,9,10, 9, 0, 2, 0.00,60.00,Tuesday
2232,0.0
2233,0.0
5265,7207.281565435503
2,9,10, 9, 0, 3, 0.00,60.00,Tuesday
2232,0.0
2233,0.0
5265,7154.349535514295
2,9,10, 9, 0, 4, 0.00,60.00,Tuesday
2232,0.0
2233,0.0
5265,7080.629733334416
2,9,10, 9, 0, 5, 0.00,60.00,Tuesday
2232,0.0
2233,0.0
5265,7002.569997388203
2,9,10, 9, 0, 6, 0.00,60.00,Tuesday
2232,61.68848484330672
2233,34.19683426187263
5265,7130.039205391812
2,9,10, 9, 0, 7, 0.00,60.00,Tuesday
2232,360.0233886567748
2233,217.99220770828388
5265,7518.739944541361
2,9,10, 9, 0, 8, 0.00,60.00,Tuesday
2232,644.2286692962772
2233,390.1295981870023
5265,20821.88286234628
2,9,10, 9, 0, 9, 0.00,60.00,Tuesday
2232,772.8019305224112
2233,476.1081798814956
5265,73580.27454968059
2,9,10, 9, 0,10, 0.00,60.00,Tuesday
2232,739.0179541771321
2233,468.4417579323276
5265,105802.16524354804
2,9,10, 9, 0,11, 0.00,60.00,Tuesday
2232,627.0183699264627
2233,411.9339721442096
5265,114569.86323561725
2,9,10, 9, 0,12, 0.00,60.00,Tuesday
2232,559.4330116209476
2233,375.0614006646647
5265,152515.74337641026
2,9,10, 9, 0,13, 0.00,60.00,Tuesday
2232,582.0261772104959
2233,383.3405685889379
5265,144409.74561427858
2,9,10, 9, 0,14, 0.00,60.00,Tuesday
2232,612.5604389709027
2233,389.4991567937204
5265,168095.51463234597
2,9,10, 9, 0,15, 0.00,60.00,Tuesday
2232,532.6893453760011
2233,329.7610250245677
5265,147038.6882812058
2,9,10, 9, 0,16, 0.00,60.00,Tuesday
2232,354.4234483961629
2233,219.97657765511489
5265,149418.4266642373
2,9,10, 9, 0,17, 0.00,60.00,Tuesday
2232,143.63752903538743
2233,90.40350190445902
5265,125277.24208420831
2,9,10, 9, 0,18, 0.00,60.00,Tuesday
2232,13.596557471466932
2233,8.527291887931016
5265,111272.44914319362
2,9,10, 9, 0,19, 0.00,60.00,Tuesday
2232,0.0
2233,0.0
5265,66334.83005718139
2,9,10, 9, 0,20, 0.00,60.00,Tuesday
2232,0.0
2233,0.0
5265,32261.004079304523
2,9,10, 9, 0,21, 0.00,60.00,Tuesday
2232,0.0
2233,0.0
5265,8657.365337249343
2,9,10, 9, 0,22, 0.00,60.00,Tuesday
2232,0.0
2233,0.0
5265,8393.891789855055
2,9,10, 9, 0,23, 0.00,60.00,Tuesday
2232,0.0
2233,0.0
5265,8303.11011072275
2,9,10, 9, 0,24, 0.00,60.00,Tuesday
2232,0.0
2233,0.0
5265,8257.114984990514
2,10,10,10, 0, 1, 0.00,60.00,Wednesday
2232,0.0
2233,0.0
5265,8227.520130876934
2,10,10,10, 0, 2, 0.00,60.00,Wednesday
2232,0.0
2233,0.0
5265,8202.301203417288
2,10,10,10, 0, 3, 0.00,60.00,Wednesday
2232,0.0
2233,0.0
5265,8173.120012358976
2,10,10,10, 0, 4, 0.00,60.00,Wednesday
2232,0.0
2233,0.0
5265,8123.695856437897
2,10,10,10, 0, 5, 0.00,60.00,Wednesday
2232,0.0
2233,0.0
5265,8004.223856137913
2,10,10,10, 0, 6, 0.00,60.00,Wednesday
2232,34.14010589994945
2233,21.56359522618986
5265,8025.32163806337
2,10,10,10, 0, 7, 0.00,60.00,Wednesday
2232,202.76256925233759
2233,129.0269871543295
5265,8193.973597584341
2,10,10,10, 0, 8, 0.00,60.00,Wednesday
2232,385.29522808731516
2233,240.13185454849597
5265,25395.92305440037
2,10,10,10, 0, 9, 0.00,60.00,Wednesday
2232,584.5389120171507
2233,367.1359758327397
5265,80937.03915720339
2,10,10,10, 0,10, 0.00,60.00,Wednesday
2232,628.0095583899861
2233,403.58153286259877
5265,113535.66574386195
2,10,10,10, 0,11, 0.00,60.00,Wednesday
2232,574.3560235664964
2233,379.5862835892151
5265,135568.48230235574
2,10,10,10, 0,12, 0.00,60.00,Wednesday
2232,481.7723199495797
2233,324.21314605940207
5265,171797.00159490878
2,10,10,10, 0,13, 0.00,60.00,Wednesday
2232,547.2943337037377
2233,360.3595609403342
5265,172075.38523754874
2,10,10,10, 0,14, 0.00,60.00,Wednesday
2232,601.8411657318865
2233,382.33066581865907
5265,172349.08139909799
2,10,10,10, 0,15, 0.00,60.00,Wednesday
2232,580.4440177850865
2233,358.45606846740847
5265,178722.4444147288
2,10,10,10, 0,16, 0.00,60.00,Wednesday
2232,447.11574647586516
2233,272.0796213798195
5265,144704.32387475397
2,10,10,10, 0,17, 0.00,60.00,Wednesday
2232,229.55311144270272
2233,138.06752412045595
5265,83126.94133779749
2,10,10,10, 0,18, 0.00,60.00,Wednesday
2232,24.19567402125303
2233,14.131117905401224
5265,52928.220861403686
2,10,10,10, 0,19, 0.00,60.00,Wednesday
2232,0.0
2233,0.0
5265,23332.621091336565
2,10,10,10, 0,20, 0.00,60.00,Wednesday
2232,0.0
2233,0.0
5265,9363.135168454479
2,10,10,10, 0,21, 0.00,60.00,Wednesday
2232,0.0
2233,0.0
5265,8906.097268901556
2,10,10,10, 0,22, 0.00,60.00,Wednesday
2232,0.0
2233,0.0
5265,8461.424292333237
2,10,10,10, 0,23, 0.00,60.00,Wednesday
2232,0.0
2233,0.0
5265,8429.75455117574
2,10,10,10, 0,24, 0.00,60.00,Wednesday
2232,0.0
2233,0.0
5265,8392.421807566958
2,11,10,11, 0, 1, 0.00,60.00,Thursday
2232,0.0
2233,0.0
5265,8341.804300886108
2,11,10,11, 0, 2, 0.00,60.00,Thursday
2232,0.0
2233,0.0
5265,8281.248006173311
2,11,10,11, 0, 3, 0.00,60.00,Thursday
2232,0.0
2233,0.0
5265,8241.326451603132
2,11,10,11, 0, 4, 0.00,60.00,Thursday
2232,0.0
2233,0.0
5265,8214.779396360484
2,11,10,11, 0, 5, 0.00,60.00,Thursday
2232,0.0
2233,0.0
5265,8188.431172257285
2,11,10,11, 0, 6, 0.00,60.00,Thursday
2232,38.072085097542558
2233,23.853588540962276
5265,8210.104326549166
2,11,10,11, 0, 7, 0.00,60.00,Thursday
2232,229.87164846618604
2233,145.90561024249238
5265,8316.259039214901
2,11,10,11, 0, 8, 0.00,60.00,Thursday
2232,435.4631256153544
2233,271.5300529304664
5265,23841.304298915366
2,11,10,11, 0, 9, 0.00,60.00,Thursday
2232,562.9449374143443
2233,353.64263168177646
5265,114294.39010982959
2,11,10,11, 0,10, 0.00,60.00,Thursday
2232,586.7968252975016
2233,377.0922059053698
5265,148732.7142184221
2,11,10,11, 0,11, 0.00,60.00,Thursday
2232,563.758847067473
2233,371.7380730228881
5265,167397.0580521069
2,11,10,11, 0,12, 0.00,60.00,Thursday
2232,548.8199520967052
2233,366.4152846952745
5265,169387.46940694136
2,11,10,11, 0,13, 0.00,60.00,Thursday
2232,546.3647393290418
2233,360.9678847806199
5265,172179.0689889543
2,11,10,11, 0,14, 0.00,60.00,Thursday
2232,540.9326805375919
2233,347.28952807506809
5265,184378.4361000186
2,11,10,11, 0,15, 0.00,60.00,Thursday
2232,483.7428874968123
2233,304.0489717740084
5265,180287.19519045217
2,11,10,11, 0,16, 0.00,60.00,Thursday
2232,346.0018483321947
2233,215.29359365357233
5265,181889.17232369117
2,11,10,11, 0,17, 0.00,60.00,Thursday
2232,165.85455576038829
2233,102.75317287014167
5265,168316.49386796749
2,11,10,11, 0,18, 0.00,60.00,Thursday
2232,16.926199903987855
2233,10.355697104678635
5265,88468.0957395314
2,11,10,11, 0,19, 0.00,60.00,Thursday
2232,0.0
2233,0.0
5265,63635.61656882318
2,11,10,11, 0,20, 0.00,60.00,Thursday
2232,0.0
2233,0.0
5265,45701.25363686597
2,11,10,11, 0,21, 0.00,60.00,Thursday
2232,0.0
2233,0.0
5265,8466.666047906043
2,11,10,11, 0,22, 0.00,60.00,Thursday
2232,0.0
2233,0.0
5265,8421.903071748247
2,11,10,11, 0,23, 0.00,60.00,Thursday
2232,0.0
2233,0.0
5265,8379.96448065601
2,11,10,11, 0,24, 0.00,60.00,Thursday
2232,0.0
2233,0.0
5265,8333.445606882622
2,12,10,12, 0, 1, 0.00,60.00,Friday
2232,0.0
2233,0.0
5265,8261.998467784719
2,12,10,12, 0, 2, 0.00,60.00,Friday
2232,0.0
2233,0.0
5265,8183.592451689925
2,12,10,12, 0, 3, 0.00,60.00,Friday
2232,0.0
2233,0.0
5265,8149.8225089277
2,12,10,12, 0, 4, 0.00,60.00,Friday
2232,0.0
2233,0.0
5265,8186.35427347048
2,12,10,12, 0, 5, 0.00,60.00,Friday
2232,0.0
2233,0.0
5265,8223.872679040307
2,12,10,12, 0, 6, 0.00,60.00,Friday
2232,36.278815938012538
2233,22.826741598827455
5265,8258.686432764758
2,12,10,12, 0, 7, 0.00,60.00,Friday
2232,225.20300251847073
2233,142.9652113421828
5265,8329.008309524916
2,12,10,12, 0, 8, 0.00,60.00,Friday
2232,444.30951826954927
2233,277.1791897381372
5265,29218.277632498546
2,12,10,12, 0, 9, 0.00,60.00,Friday
2232,579.0796630275428
2233,363.6779994163505
5265,91784.92754299483
2,12,10,12, 0,10, 0.00,60.00,Friday
2232,600.8633789204265
2233,386.03358232572216
5265,150581.4562090624
2,12,10,12, 0,11, 0.00,60.00,Friday
2232,568.3855029283633
2233,374.9358279624696
5265,148979.1279676715
2,12,10,12, 0,12, 0.00,60.00,Friday
2232,539.5132707767776
2233,359.9412552191406
5265,151816.2081137876
2,12,10,12, 0,13, 0.00,60.00,Friday
2232,525.3705324695197
2233,346.6009767663636
5265,161173.20830132164
2,12,10,12, 0,14, 0.00,60.00,Friday
2232,511.97627467284658
2233,329.2176002826268
5265,168559.49395630646
2,12,10,12, 0,15, 0.00,60.00,Friday
2232,457.63864454764328
2233,287.82815029322895
5265,148748.7570387382
2,12,10,12, 0,16, 0.00,60.00,Friday
2232,333.1055083546937
2233,207.92163484706757
5265,131572.96481666427
2,12,10,12, 0,17, 0.00,60.00,Friday
2232,156.0039661635731
2233,97.15111306527922
5265,122015.85385007617
2,12,10,12, 0,18, 0.00,60.00,Friday
2232,15.549162268570166
2233,9.582013812632744
5265,56021.64856766024
2,12,10,12, 0,19, 0.00,60.00,Friday
2232,0.0
2233,0.0
5265,29686.72647204244
2,12,10,12, 0,20, 0.00,60.00,Friday
2232,0.0
2233,0.0
5265,18672.198826466443
2,12,10,12, 0,21, 0.00,60.00,Friday
2232,0.0
2233,0.0
5265,13465.181014624715
2,12,10,12, 0,22, 0.00,60.00,Friday
2232,0.0
2233,0.0
5265,8281.713703951324
2,12,10,12, 0,23, 0.00,60.00,Friday
2232,0.0
2233,0.0
5265,8184.047521500495
2,12,10,12, 0,24, 0.00,60.00,Friday
2232,0.0
2233,0.0
5265,8116.356621736838
2,13,10,13, 0, 1, 0.00,60.00,Saturday
2232,0.0
2233,0.0
5265,8106.180895712106
2,13,10,13, 0, 2, 0.00,60.00,Saturday
2232,0.0
2233,0.0
5265,8109.302913806266
2,13,10,13, 0, 3, 0.00,60.00,Saturday
2232,0.0
2233,0.0
5265,8112.384528282621
2,13,10,13, 0, 4, 0.00,60.00,Saturday
2232,0.0
2233,0.0
5265,8106.488888246743
2,13,10,13, 0, 5, 0.00,60.00,Saturday
2232,0.0
2233,0.0
5265,8100.743542255955
2,13,10,13, 0, 6, 0.00,60.00,Saturday
2232,38.011492102159177
2233,23.821370135250367
5265,8130.514315456966
2,13,10,13, 0, 7, 0.00,60.00,Saturday
2232,229.22597493561708
2233,145.52367192390583
5265,8239.375064396074
2,13,10,13, 0, 8, 0.00,60.00,Saturday
2232,435.71436137996656
2233,271.7238040195396
5265,8384.500569184725
2,13,10,13, 0, 9, 0.00,60.00,Saturday
2232,577.0715163051277
2233,362.4252618941984
5265,58306.22467993192
2,13,10,13, 0,10, 0.00,60.00,Saturday
2232,605.0092115727608
2233,388.68145694527046
5265,82807.54489454522
2,13,10,13, 0,11, 0.00,60.00,Saturday
2232,572.1309796442566
2233,377.4941853958239
5265,93784.49043510064
2,13,10,13, 0,12, 0.00,60.00,Saturday
2232,545.5131849924757
2233,364.3374200222275
5265,84307.9186407721
2,13,10,13, 0,13, 0.00,60.00,Saturday
2232,537.8375213533193
2233,355.1670698919723
5265,63975.1607390959
2,13,10,13, 0,14, 0.00,60.00,Saturday
2232,532.2634947265988
2233,342.2696381484088
5265,57377.87405602585
2,13,10,13, 0,15, 0.00,60.00,Saturday
2232,474.52121719196136
2233,298.28162639392766
5265,57454.42606162463
2,13,10,13, 0,16, 0.00,60.00,Saturday
2232,344.97006598974579
2233,214.41421943250556
5265,51700.89548291332
2,13,10,13, 0,17, 0.00,60.00,Saturday
2232,160.86633233865693
2233,99.77479383230623
5265,42132.83235107636
2,13,10,13, 0,18, 0.00,60.00,Saturday
2232,16.010350648686168
2233,9.802913777195064
5265,36011.128777668615
2,13,10,13, 0,19, 0.00,60.00,Saturday
2232,0.0
2233,0.0
5265,28637.980488356585
2,13,10,13, 0,20, 0.00,60.00,Saturday
2232,0.0
2233,0.0
5265,12608.786766737308
2,13,10,13, 0,21, 0.00,60.00,Saturday
2232,0.0
2233,0.0
5265,12456.051674440028
2,13,10,13, 0,22, 0.00,60.00,Saturday
2232,0.0
2233,0.0
5265,8686.196754520204
2,13,10,13, 0,23, 0.00,60.00,Saturday
2232,0.0
2233,0.0
5265,8439.505433815648
2,13,10,13, 0,24, 0.00,60.00,Saturday
2232,0.0
2233,0.0
5265,8351.921465377594