Program Version,EnergyPlus, Version 8.7.0-78a111df4a, YMD=2019.11.25 13:27
1,5,Environment Title[],Latitude[deg],Longitude[deg],Time Zone[],Elevation[m]
2,6,Day of Simulation[],Month[],Day of Month[],DST Indicator[1=yes 0=no],Hour[],StartMinute[],EndMinute[],DayType
3,3,Cumulative Day of Simulation[],Month[],Day of Month[],DST Indicator[1=yes 0=no],DayType  ! When Daily Report Variables Requested
4,2,Cumulative Days of Simulation[],Month[]  ! When Monthly Report Variables Requested
5,1,Cumulative Days of Simulation[] ! When Run Period Report Variables Requested
5263,1,Whole Building,Facility Total Electric Demand Power [W] !Hourly
End of Data Dictionary
1,RUNPERIOD,  10.30, 123.97,   8.00,  24.00
2,1, 4, 1, 0, 1, 0.00,60.00,Monday
5263,4171.615971251124
2,1, 4, 1, 0, 2, 0.00,60.00,Monday
5263,3912.236464907802
2,1, 4, 1, 0, 3, 0.00,60.00,Monday
5263,3704.7568356148063
2,1, 4, 1, 0, 4, 0.00,60.00,Monday
5263,3471.896103632805
2,1, 4, 1, 0, 5, 0.00,60.00,Monday
5263,3230.944009680336
2,1, 4, 1, 0, 6, 0.00,60.00,Monday
5263,3209.3377421548266
2,1, 4, 1, 0, 7, 0.00,60.00,Monday
5263,3482.9708597230733
2,1, 4, 1, 0, 8, 0.00,60.00,Monday
5263,15146.424665394487
2,1, 4, 1, 0, 9, 0.00,60.00,Monday
5263,118828.90426985895
2,1, 4, 1, 0,10, 0.00,60.00,Monday
5263,122963.20501251093
2,1, 4, 1, 0,11, 0.00,60.00,Monday
5263,126027.14513406216
2,1, 4, 1, 0,12, 0.00,60.00,Monday
5263,128068.04267528087
2,1, 4, 1, 0,13, 0.00,60.00,Monday
5263,118665.93654348543
2,1, 4, 1, 0,14, 0.00,60.00,Monday
5263,110559.31019795675
2,1, 4, 1, 0,15, 0.00,60.00,Monday
5263,118124.32329504
2,1, 4, 1, 0,16, 0.00,60.00,Monday
5263,110113.31859736808
2,1, 4, 1, 0,17, 0.00,60.00,Monday
5263,94775.4140687276
2,1, 4, 1, 0,18, 0.00,60.00,Monday
5263,32739.475607623932
2,1, 4, 1, 0,19, 0.00,60.00,Monday
5263,15810.119799094498
2,1, 4, 1, 0,20, 0.00,60.00,Monday
5263,6457.17986028075
2,1, 4, 1, 0,21, 0.00,60.00,Monday
5263,4998.9888916894415
2,1, 4, 1, 0,22, 0.00,60.00,Monday
5263,4500.4189572185
2,1, 4, 1, 0,23, 0.00,60.00,Monday
5263,4435.9253924202985
2,1, 4, 1, 0,24, 0.00,60.00,Monday
5263,4366.007495567702
2,2, 4, 2, 0, 1, 0.00,60.00,Tuesday
5263,4302.781464440962
2,2, 4, 2, 0, 2, 0.00,60.00,Tuesday
5263,4223.693842888447
2,2, 4, 2, 0, 3, 0.00,60.00,Tuesday
5263,4146.668624267336
2,2, 4, 2, 0, 4, 0.00,60.00,Tuesday
5263,4105.765165827917
2,2, 4, 2, 0, 5, 0.00,60.00,Tuesday
5263,4062.096792920835
2,2, 4, 2, 0, 6, 0.00,60.00,Tuesday
5263,4042.937122234836
2,2, 4, 2, 0, 7, 0.00,60.00,Tuesday
5263,4148.8029677557715
2,2, 4, 2, 0, 8, 0.00,60.00,Tuesday
5263,12012.86566382288
2,2, 4, 2, 0, 9, 0.00,60.00,Tuesday
5263,88547.56059711548
2,2, 4, 2, 0,10, 0.00,60.00,Tuesday
5263,113293.61624227774
2,2, 4, 2, 0,11, 0.00,60.00,Tuesday
5263,120521.5204208467
2,2, 4, 2, 0,12, 0.00,60.00,Tuesday
5263,114877.20937108645
2,2, 4, 2, 0,13, 0.00,60.00,Tuesday
5263,110685.123614414
2,2, 4, 2, 0,14, 0.00,60.00,Tuesday
5263,127424.96951741322
2,2, 4, 2, 0,15, 0.00,60.00,Tuesday
5263,143789.14726553224
2,2, 4, 2, 0,16, 0.00,60.00,Tuesday
5263,140199.3994809823
2,2, 4, 2, 0,17, 0.00,60.00,Tuesday
5263,134793.2563644705
2,2, 4, 2, 0,18, 0.00,60.00,Tuesday
5263,73221.78176122427
2,2, 4, 2, 0,19, 0.00,60.00,Tuesday
5263,48435.85914069358
2,2, 4, 2, 0,20, 0.00,60.00,Tuesday
5263,33397.440837790935
2,2, 4, 2, 0,21, 0.00,60.00,Tuesday
5263,4744.038800512043
2,2, 4, 2, 0,22, 0.00,60.00,Tuesday
5263,4604.11546098452
2,2, 4, 2, 0,23, 0.00,60.00,Tuesday
5263,4453.560644999462
2,2, 4, 2, 0,24, 0.00,60.00,Tuesday
5263,4302.582774901216
2,3, 4, 3, 0, 1, 0.00,60.00,Wednesday
5263,4143.6579536606405
2,3, 4, 3, 0, 2, 0.00,60.00,Wednesday
5263,3964.7179050839263
2,3, 4, 3, 0, 3, 0.00,60.00,Wednesday
5263,3790.5873899904145
2,3, 4, 3, 0, 4, 0.00,60.00,Wednesday
5263,3614.1014541154304
2,3, 4, 3, 0, 5, 0.00,60.00,Wednesday
5263,3453.9110341454493
2,3, 4, 3, 0, 6, 0.00,60.00,Wednesday
5263,3444.72391019833
2,3, 4, 3, 0, 7, 0.00,60.00,Wednesday
5263,3628.098821532792
2,3, 4, 3, 0, 8, 0.00,60.00,Wednesday
5263,10793.360674691061
2,3, 4, 3, 0, 9, 0.00,60.00,Wednesday
5263,112435.46143298086
2,3, 4, 3, 0,10, 0.00,60.00,Wednesday
5263,115180.4906243919
2,3, 4, 3, 0,11, 0.00,60.00,Wednesday
5263,118192.91150173969
2,3, 4, 3, 0,12, 0.00,60.00,Wednesday
5263,119106.83355571355
2,3, 4, 3, 0,13, 0.00,60.00,Wednesday
5263,112278.42887886717
2,3, 4, 3, 0,14, 0.00,60.00,Wednesday
5263,108059.60818156816
2,3, 4, 3, 0,15, 0.00,60.00,Wednesday
5263,117551.26967494673
2,3, 4, 3, 0,16, 0.00,60.00,Wednesday
5263,109465.92172283308
2,3, 4, 3, 0,17, 0.00,60.00,Wednesday
5263,89872.04429884913
2,3, 4, 3, 0,18, 0.00,60.00,Wednesday
5263,28498.111592402198
2,3, 4, 3, 0,19, 0.00,60.00,Wednesday
5263,13060.396466798287
2,3, 4, 3, 0,20, 0.00,60.00,Wednesday
5263,5154.60456687854
2,3, 4, 3, 0,21, 0.00,60.00,Wednesday
5263,4663.290756047515
2,3, 4, 3, 0,22, 0.00,60.00,Wednesday
5263,4191.5503721755085
2,3, 4, 3, 0,23, 0.00,60.00,Wednesday
5263,4110.512546387097
2,3, 4, 3, 0,24, 0.00,60.00,Wednesday
5263,4016.1783046840937
2,4, 4, 4, 0, 1, 0.00,60.00,Thursday
5263,3933.845663030021
2,4, 4, 4, 0, 2, 0.00,60.00,Thursday
5263,3845.289591852965
2,4, 4, 4, 0, 3, 0.00,60.00,Thursday
5263,3748.949073461846
2,4, 4, 4, 0, 4, 0.00,60.00,Thursday
5263,3665.1390661886885
2,4, 4, 4, 0, 5, 0.00,60.00,Thursday
5263,3587.258420218419
2,4, 4, 4, 0, 6, 0.00,60.00,Thursday
5263,3564.791223068796
2,4, 4, 4, 0, 7, 0.00,60.00,Thursday
5263,3709.69127863806
2,4, 4, 4, 0, 8, 0.00,60.00,Thursday
5263,12235.144607144335
2,4, 4, 4, 0, 9, 0.00,60.00,Thursday
5263,81796.0767568918
2,4, 4, 4, 0,10, 0.00,60.00,Thursday
5263,108712.26541309867
2,4, 4, 4, 0,11, 0.00,60.00,Thursday
5263,109200.96306497144
2,4, 4, 4, 0,12, 0.00,60.00,Thursday
5263,103500.16966001461
2,4, 4, 4, 0,13, 0.00,60.00,Thursday
5263,99187.84440239186
2,4, 4, 4, 0,14, 0.00,60.00,Thursday
5263,110578.87932609918
2,4, 4, 4, 0,15, 0.00,60.00,Thursday
5263,122277.53177426792
2,4, 4, 4, 0,16, 0.00,60.00,Thursday
5263,125849.78026544496
2,4, 4, 4, 0,17, 0.00,60.00,Thursday
5263,115610.68968415035
2,4, 4, 4, 0,18, 0.00,60.00,Thursday
5263,58990.14617903169
2,4, 4, 4, 0,19, 0.00,60.00,Thursday
5263,41179.41077080744
2,4, 4, 4, 0,20, 0.00,60.00,Thursday
5263,27876.652191217738
2,4, 4, 4, 0,21, 0.00,60.00,Thursday
5263,4365.690128483923
2,4, 4, 4, 0,22, 0.00,60.00,Thursday
5263,4274.426411336694
2,4, 4, 4, 0,23, 0.00,60.00,Thursday
5263,4160.308900941
2,4, 4, 4, 0,24, 0.00,60.00,Thursday
5263,4085.3237145126036
2,5, 4, 5, 0, 1, 0.00,60.00,Friday
5263,4066.680242409515
2,5, 4, 5, 0, 2, 0.00,60.00,Friday
5263,4042.7516356107767
2,5, 4, 5, 0, 3, 0.00,60.00,Friday
5263,3933.0199829545368
2,5, 4, 5, 0, 4, 0.00,60.00,Friday
5263,3776.2575269402478
2,5, 4, 5, 0, 5, 0.00,60.00,Friday
5263,3614.759018288718
2,5, 4, 5, 0, 6, 0.00,60.00,Friday
5263,3582.5704331203597
2,5, 4, 5, 0, 7, 0.00,60.00,Friday
5263,3755.378260835187
2,5, 4, 5, 0, 8, 0.00,60.00,Friday
5263,13881.361299916505
2,5, 4, 5, 0, 9, 0.00,60.00,Friday
5263,83930.28146807608
2,5, 4, 5, 0,10, 0.00,60.00,Friday
5263,91754.8608377424
2,5, 4, 5, 0,11, 0.00,60.00,Friday
5263,95582.14979569656
2,5, 4, 5, 0,12, 0.00,60.00,Friday
5263,97129.35758959699
2,5, 4, 5, 0,13, 0.00,60.00,Friday
5263,96977.7984383977
2,5, 4, 5, 0,14, 0.00,60.00,Friday
5263,103693.77866364552
2,5, 4, 5, 0,15, 0.00,60.00,Friday
5263,113484.05066013911
2,5, 4, 5, 0,16, 0.00,60.00,Friday
5263,108088.7015189558
2,5, 4, 5, 0,17, 0.00,60.00,Friday
5263,87607.21596942029
2,5, 4, 5, 0,18, 0.00,60.00,Friday
5263,34855.1045538266
2,5, 4, 5, 0,19, 0.00,60.00,Friday
5263,20376.105384214876
2,5, 4, 5, 0,20, 0.00,60.00,Friday
5263,13301.764549545494
2,5, 4, 5, 0,21, 0.00,60.00,Friday
5263,8790.599394331406
2,5, 4, 5, 0,22, 0.00,60.00,Friday
5263,4278.913018800772
2,5, 4, 5, 0,23, 0.00,60.00,Friday
5263,4173.772494484498
2,5, 4, 5, 0,24, 0.00,60.00,Friday
5263,4095.994790585512
2,6, 4, 6, 0, 1, 0.00,60.00,Saturday
5263,4049.603369157012
2,6, 4, 6, 0, 2, 0.00,60.00,Saturday
5263,3983.0193868945225
2,6, 4, 6, 0, 3, 0.00,60.00,Saturday
5263,3867.5550326560674
2,6, 4, 6, 0, 4, 0.00,60.00,Saturday
5263,3701.324097456581
2,6, 4, 6, 0, 5, 0.00,60.00,Saturday
5263,3538.171803445652
2,6, 4, 6, 0, 6, 0.00,60.00,Saturday
5263,3450.82217202715
2,6, 4, 6, 0, 7, 0.00,60.00,Saturday
5263,3443.1302057856888
2,6, 4, 6, 0, 8, 0.00,60.00,Saturday
5263,3541.2270747181865
2,6, 4, 6, 0, 9, 0.00,60.00,Saturday
5263,77477.63504908247
2,6, 4, 6, 0,10, 0.00,60.00,Saturday
5263,94422.97024867604
2,6, 4, 6, 0,11, 0.00,60.00,Saturday
5263,101435.8236728554
2,6, 4, 6, 0,12, 0.00,60.00,Saturday
5263,92310.77015692776
2,6, 4, 6, 0,13, 0.00,60.00,Saturday
5263,42732.475800888875
2,6, 4, 6, 0,14, 0.00,60.00,Saturday
5263,42033.14067011122
2,6, 4, 6, 0,15, 0.00,60.00,Saturday
5263,43730.769758827315
2,6, 4, 6, 0,16, 0.00,60.00,Saturday
5263,39707.58469859657
2,6, 4, 6, 0,17, 0.00,60.00,Saturday
5263,32983.261449773265
2,6, 4, 6, 0,18, 0.00,60.00,Saturday
5263,22217.865418029
2,6, 4, 6, 0,19, 0.00,60.00,Saturday
5263,13003.173347682108
2,6, 4, 6, 0,20, 0.00,60.00,Saturday
5263,9919.740083358682
2,6, 4, 6, 0,21, 0.00,60.00,Saturday
5263,8375.673159203501
2,6, 4, 6, 0,22, 0.00,60.00,Saturday
5263,3917.218019631338
2,6, 4, 6, 0,23, 0.00,60.00,Saturday
5263,3858.196947045881
2,6, 4, 6, 0,24, 0.00,60.00,Saturday
5263,3778.7694676126393
2,7, 4, 7, 0, 1, 0.00,60.00,Sunday
5263,3700.0974043449846
2,7, 4, 7, 0, 2, 0.00,60.00,Sunday
5263,3623.884902730151
2,7, 4, 7, 0, 3, 0.00,60.00,Sunday
5263,3577.2374481576685
2,7, 4, 7, 0, 4, 0.00,60.00,Sunday
5263,3548.0623030424026
2,7, 4, 7, 0, 5, 0.00,60.00,Sunday
5263,3514.0844947200294
2,7, 4, 7, 0, 6, 0.00,60.00,Sunday
5263,3627.007449838156
2,7, 4, 7, 0, 7, 0.00,60.00,Sunday
5263,3970.9665420975434
2,7, 4, 7, 0, 8, 0.00,60.00,Sunday
5263,4380.970721252321
2,7, 4, 7, 0, 9, 0.00,60.00,Sunday
5263,4676.731020174492
2,7, 4, 7, 0,10, 0.00,60.00,Sunday
5263,4899.56866903778
2,7, 4, 7, 0,11, 0.00,60.00,Sunday
5263,5044.818476511488
2,7, 4, 7, 0,12, 0.00,60.00,Sunday
5263,5148.018041650692
2,7, 4, 7, 0,13, 0.00,60.00,Sunday
5263,5218.413427283059
2,7, 4, 7, 0,14, 0.00,60.00,Sunday
5263,5319.287368734724
2,7, 4, 7, 0,15, 0.00,60.00,Sunday
5263,5374.722803605551
2,7, 4, 7, 0,16, 0.00,60.00,Sunday
5263,5391.683331135653
2,7, 4, 7, 0,17, 0.00,60.00,Sunday
5263,5336.529437619144
2,7, 4, 7, 0,18, 0.00,60.00,Sunday
5263,5201.091368410401
2,7, 4, 7, 0,19, 0.00,60.00,Sunday
5263,5041.318112723893
2,7, 4, 7, 0,20, 0.00,60.00,Sunday
5263,4936.827782781081
2,7, 4, 7, 0,21, 0.00,60.00,Sunday
5263,4847.247867036457
2,7, 4, 7, 0,22, 0.00,60.00,Sunday
5263,4715.740530910563
2,7, 4, 7, 0,23, 0.00,60.00,Sunday
5263,4569.75557155892
2,7, 4, 7, 0,24, 0.00,60.00,Sunday
5263,4443.018794840519
2,8, 4, 8, 0, 1, 0.00,60.00,Monday
5263,4366.152331308326
2,8, 4, 8, 0, 2, 0.00,60.00,Monday
5263,4284.922212152712
2,8, 4, 8, 0, 3, 0.00,60.00,Monday
5263,4159.925357838697
2,8, 4, 8, 0, 4, 0.00,60.00,Monday
5263,4014.9780585753124
2,8, 4, 8, 0, 5, 0.00,60.00,Monday
5263,3867.440171010639
2,8, 4, 8, 0, 6, 0.00,60.00,Monday
5263,3864.4734123215626
2,8, 4, 8, 0, 7, 0.00,60.00,Monday
5263,4090.1856910174843
2,8, 4, 8, 0, 8, 0.00,60.00,Monday
5263,17154.51380387062
2,8, 4, 8, 0, 9, 0.00,60.00,Monday
5263,129956.00963912982
2,8, 4, 8, 0,10, 0.00,60.00,Monday
5263,132034.53861535993
2,8, 4, 8, 0,11, 0.00,60.00,Monday
5263,133341.47136692675
2,8, 4, 8, 0,12, 0.00,60.00,Monday
5263,134288.1158576286
2,8, 4, 8, 0,13, 0.00,60.00,Monday
5263,124469.27234798752
2,8, 4, 8, 0,14, 0.00,60.00,Monday
5263,115734.49528331367
2,8, 4, 8, 0,15, 0.00,60.00,Monday
5263,123323.78125842764
2,8, 4, 8, 0,16, 0.00,60.00,Monday
5263,115090.67030274845
2,8, 4, 8, 0,17, 0.00,60.00,Monday
5263,99257.89784798325
2,8, 4, 8, 0,18, 0.00,60.00,Monday
5263,33610.64251961757
2,8, 4, 8, 0,19, 0.00,60.00,Monday
5263,16118.377719048933
2,8, 4, 8, 0,20, 0.00,60.00,Monday
5263,6499.067922630737
2,8, 4, 8, 0,21, 0.00,60.00,Monday
5263,5032.183090999151
2,8, 4, 8, 0,22, 0.00,60.00,Monday
5263,4584.025865330834
2,8, 4, 8, 0,23, 0.00,60.00,Monday
5263,4553.18652747971
2,8, 4, 8, 0,24, 0.00,60.00,Monday
5263,4478.288444730498
2,9, 4, 9, 0, 1, 0.00,60.00,Holiday
5263,4385.364138362594
2,9, 4, 9, 0, 2, 0.00,60.00,Holiday
5263,4288.979654471947
2,9, 4, 9, 0, 3, 0.00,60.00,Holiday
5263,4209.282833608195
2,9, 4, 9, 0, 4, 0.00,60.00,Holiday
5263,4131.422911580559
2,9, 4, 9, 0, 5, 0.00,60.00,Holiday
5263,4053.7977864475374
2,9, 4, 9, 0, 6, 0.00,60.00,Holiday
5263,4108.250939506189
2,9, 4, 9, 0, 7, 0.00,60.00,Holiday
5263,4350.557503696504
2,9, 4, 9, 0, 8, 0.00,60.00,Holiday
5263,4617.900223723361
2,9, 4, 9, 0, 9, 0.00,60.00,Holiday
5263,4689.70446599639
2,9, 4, 9, 0,10, 0.00,60.00,Holiday
5263,5006.905739543389
2,9, 4, 9, 0,11, 0.00,60.00,Holiday
5263,5360.853876975964
2,9, 4, 9, 0,12, 0.00,60.00,Holiday
5263,5475.488187551197
2,9, 4, 9, 0,13, 0.00,60.00,Holiday
5263,5521.17614854799
2,9, 4, 9, 0,14, 0.00,60.00,Holiday
5263,5538.346109171981
2,9, 4, 9, 0,15, 0.00,60.00,Holiday
5263,5501.216452594189
2,9, 4, 9, 0,16, 0.00,60.00,Holiday
5263,5447.500031297861
2,9, 4, 9, 0,17, 0.00,60.00,Holiday
5263,5318.646849553462
2,9, 4, 9, 0,18, 0.00,60.00,Holiday
5263,5134.052810486304
2,9, 4, 9, 0,19, 0.00,60.00,Holiday
5263,4945.388805282019
2,9, 4, 9, 0,20, 0.00,60.00,Holiday
5263,4840.590466877878
2,9, 4, 9, 0,21, 0.00,60.00,Holiday
5263,4748.18757509991
2,9, 4, 9, 0,22, 0.00,60.00,Holiday
5263,4638.542623396327
2,9, 4, 9, 0,23, 0.00,60.00,Holiday
5263,4533.523437351038
2,9, 4, 9, 0,24, 0.00,60.00,Holiday
5263,4442.895308490796
2,10, 4,10, 0, 1, 0.00,60.00,Wednesday
5263,4348.891748447198
2,10, 4,10, 0, 2, 0.00,60.00,Wednesday
5263,4262.521967421709
2,10, 4,10, 0, 3, 0.00,60.00,Wednesday
5263,4196.404016361898
2,10, 4,10, 0, 4, 0.00,60.00,Wednesday
5263,4149.067153727669
2,10, 4,10, 0, 5, 0.00,60.00,Wednesday
5263,4098.609522218073
2,10, 4,10, 0, 6, 0.00,60.00,Wednesday
5263,4119.971586051302
2,10, 4,10, 0, 7, 0.00,60.00,Wednesday
5263,4334.208165589543
2,10, 4,10, 0, 8, 0.00,60.00,Wednesday
5263,13329.167693642832
2,10, 4,10, 0, 9, 0.00,60.00,Wednesday
5263,125062.9076047504
2,10, 4,10, 0,10, 0.00,60.00,Wednesday
5263,127956.94866953678
2,10, 4,10, 0,11, 0.00,60.00,Wednesday
5263,129204.44531494397
2,10, 4,10, 0,12, 0.00,60.00,Wednesday
5263,129912.59974054533
2,10, 4,10, 0,13, 0.00,60.00,Wednesday
5263,123561.91071249475
2,10, 4,10, 0,14, 0.00,60.00,Wednesday
5263,117899.69261178513
2,10, 4,10, 0,15, 0.00,60.00,Wednesday
5263,126074.87185770105
2,10, 4,10, 0,16, 0.00,60.00,Wednesday
5263,116597.76436804875
2,10, 4,10, 0,17, 0.00,60.00,Wednesday
5263,96114.46454211978
2,10, 4,10, 0,18, 0.00,60.00,Wednesday
5263,30451.52774825112
2,10, 4,10, 0,19, 0.00,60.00,Wednesday
5263,13903.323860060083
2,10, 4,10, 0,20, 0.00,60.00,Wednesday
5263,5373.710653270721
2,10, 4,10, 0,21, 0.00,60.00,Wednesday
5263,4896.0210858383625
2,10, 4,10, 0,22, 0.00,60.00,Wednesday
5263,4447.570344387347
2,10, 4,10, 0,23, 0.00,60.00,Wednesday
5263,4413.642331275877
2,10, 4,10, 0,24, 0.00,60.00,Wednesday
5263,4363.899125860917
2,11, 4,11, 0, 1, 0.00,60.00,Thursday
5263,4314.066705499881
2,11, 4,11, 0, 2, 0.00,60.00,Thursday
5263,4277.919988186533
2,11, 4,11, 0, 3, 0.00,60.00,Thursday
5263,4172.182856673775
2,11, 4,11, 0, 4, 0.00,60.00,Thursday
5263,4022.435998345652
2,11, 4,11, 0, 5, 0.00,60.00,Thursday
5263,3864.292407622666
2,11, 4,11, 0, 6, 0.00,60.00,Thursday
5263,3837.837936679944
2,11, 4,11, 0, 7, 0.00,60.00,Thursday
5263,4006.761166279135
2,11, 4,11, 0, 8, 0.00,60.00,Thursday
5263,13232.714962102616
2,11, 4,11, 0, 9, 0.00,60.00,Thursday
5263,86403.88755444462
2,11, 4,11, 0,10, 0.00,60.00,Thursday
5263,111494.24687200296
2,11, 4,11, 0,11, 0.00,60.00,Thursday
5263,110869.02364126178
2,11, 4,11, 0,12, 0.00,60.00,Thursday
5263,106540.76092434598
2,11, 4,11, 0,13, 0.00,60.00,Thursday
5263,104297.32699727065
2,11, 4,11, 0,14, 0.00,60.00,Thursday
5263,117260.86967204872
2,11, 4,11, 0,15, 0.00,60.00,Thursday
5263,129253.51429476637
2,11, 4,11, 0,16, 0.00,60.00,Thursday
5263,132399.2315622221
2,11, 4,11, 0,17, 0.00,60.00,Thursday
5263,121479.94656012547
2,11, 4,11, 0,18, 0.00,60.00,Thursday
5263,61508.243679289044
2,11, 4,11, 0,19, 0.00,60.00,Thursday
5263,42923.818705239864
2,11, 4,11, 0,20, 0.00,60.00,Thursday
5263,28819.128726183466
2,11, 4,11, 0,21, 0.00,60.00,Thursday
5263,4577.389014007619
2,11, 4,11, 0,22, 0.00,60.00,Thursday
5263,4428.437592563151
2,11, 4,11, 0,23, 0.00,60.00,Thursday
5263,4268.4719862128395
2,11, 4,11, 0,24, 0.00,60.00,Thursday
5263,4120.305144671169
2,12, 4,12, 0, 1, 0.00,60.00,Friday
5263,3981.5896536179785
2,12, 4,12, 0, 2, 0.00,60.00,Friday
5263,3840.276826774992
2,12, 4,12, 0, 3, 0.00,60.00,Friday
5263,3739.906468657724
2,12, 4,12, 0, 4, 0.00,60.00,Friday
5263,3689.3702645481194
2,12, 4,12, 0, 5, 0.00,60.00,Friday
5263,3640.1858692418755
2,12, 4,12, 0, 6, 0.00,60.00,Friday
5263,3786.1128945535743
2,12, 4,12, 0, 7, 0.00,60.00,Friday
5263,4212.726767542917
2,12, 4,12, 0, 8, 0.00,60.00,Friday
5263,16142.790902624118
2,12, 4,12, 0, 9, 0.00,60.00,Friday
5263,94439.2958913338
2,12, 4,12, 0,10, 0.00,60.00,Friday
5263,100981.3811713959
2,12, 4,12, 0,11, 0.00,60.00,Friday
5263,102686.434088558
2,12, 4,12, 0,12, 0.00,60.00,Friday
5263,104099.13741708851
2,12, 4,12, 0,13, 0.00,60.00,Friday
5263,105489.5951326067
2,12, 4,12, 0,14, 0.00,60.00,Friday
5263,113372.13790638739
2,12, 4,12, 0,15, 0.00,60.00,Friday
5263,122937.60169385759
2,12, 4,12, 0,16, 0.00,60.00,Friday
5263,116153.33369257879
2,12, 4,12, 0,17, 0.00,60.00,Friday
5263,94153.76012004877
2,12, 4,12, 0,18, 0.00,60.00,Friday
5263,36456.72554641095
2,12, 4,12, 0,19, 0.00,60.00,Friday
5263,20900.032784076982
2,12, 4,12, 0,20, 0.00,60.00,Friday
5263,13554.879381929897
2,12, 4,12, 0,21, 0.00,60.00,Friday
5263,9003.713301017027
2,12, 4,12, 0,22, 0.00,60.00,Friday
5263,4524.310993921673
2,12, 4,12, 0,23, 0.00,60.00,Friday
5263,4475.8152922679865
2,12, 4,12, 0,24, 0.00,60.00,Friday
5263,4337.179654542152
2,13, 4,13, 0, 1, 0.00,60.00,Saturday
5263,4100.705043657491
2,13, 4,13, 0, 2, 0.00,60.00,Saturday
5263,3856.465081202637
2,13, 4,13, 0, 3, 0.00,60.00,Saturday
5263,3697.9652814646997
2,13, 4,13, 0, 4, 0.00,60.00,Saturday
5263,3597.2526525023845
2,13, 4,13, 0, 5, 0.00,60.00,Saturday
5263,3505.159323151036
2,13, 4,13, 0, 6, 0.00,60.00,Saturday
5263,3613.673085391058
2,13, 4,13, 0, 7, 0.00,60.00,Saturday
5263,4003.129140660556
2,13, 4,13, 0, 8, 0.00,60.00,Saturday
5263,4469.502496429879
2,13, 4,13, 0, 9, 0.00,60.00,Saturday
5263,93384.95169331153
2,13, 4,13, 0,10, 0.00,60.00,Saturday
5263,115779.75733333454
2,13, 4,13, 0,11, 0.00,60.00,Saturday
5263,121021.18999424127
2,13, 4,13, 0,12, 0.00,60.00,Saturday
5263,109229.11593912862
2,13, 4,13, 0,13, 0.00,60.00,Saturday
5263,50828.91776382467
2,13, 4,13, 0,14, 0.00,60.00,Saturday
5263,49143.062774026555
2,13, 4,13, 0,15, 0.00,60.00,Saturday
5263,49849.42046633445
2,13, 4,13, 0,16, 0.00,60.00,Saturday
5263,44894.927593169676
2,13, 4,13, 0,17, 0.00,60.00,Saturday
5263,37294.56788700188
2,13, 4,13, 0,18, 0.00,60.00,Saturday
5263,25263.88534184845
2,13, 4,13, 0,19, 0.00,60.00,Saturday
5263,14542.81515596108
2,13, 4,13, 0,20, 0.00,60.00,Saturday
5263,11143.254187861103
2,13, 4,13, 0,21, 0.00,60.00,Saturday
5263,9547.013400146076
2,13, 4,13, 0,22, 0.00,60.00,Saturday
5263,4483.067865774831
2,13, 4,13, 0,23, 0.00,60.00,Saturday
5263,4442.82260843952
2,13, 4,13, 0,24, 0.00,60.00,Saturday
5263,4381.998051505408
2,14, 4,14, 0, 1, 0.00,60.00,Sunday
5263,4290.1263985397945
2,14, 4,14, 0, 2, 0.00,60.00,Sunday
5263,4208.082272888875
2,14, 4,14, 0, 3, 0.00,60.00,Sunday
5263,4127.688894401382
2,14, 4,14, 0, 4, 0.00,60.00,Sunday
5263,4016.584525135256
2,14, 4,14, 0, 5, 0.00,60.00,Sunday
5263,3897.9138017423916
2,14, 4,14, 0, 6, 0.00,60.00,Sunday
5263,3947.2997178655514
2,14, 4,14, 0, 7, 0.00,60.00,Sunday
5263,4210.980103534922
2,14, 4,14, 0, 8, 0.00,60.00,Sunday
5263,4531.246366251146
2,14, 4,14, 0, 9, 0.00,60.00,Sunday
5263,4767.0148711018555
2,14, 4,14, 0,10, 0.00,60.00,Sunday
5263,5022.840072589697
2,14, 4,14, 0,11, 0.00,60.00,Sunday
5263,5259.2885981861755
2,14, 4,14, 0,12, 0.00,60.00,Sunday
5263,5474.715924534772
2,14, 4,14, 0,13, 0.00,60.00,Sunday
5263,5633.958475970666
2,14, 4,14, 0,14, 0.00,60.00,Sunday
5263,5736.884046088601
2,14, 4,14, 0,15, 0.00,60.00,Sunday
5263,5678.763297422116
2,14, 4,14, 0,16, 0.00,60.00,Sunday
5263,5502.366765551749
2,14, 4,14, 0,17, 0.00,60.00,Sunday
5263,5275.26643919609
2,14, 4,14, 0,18, 0.00,60.00,Sunday
5263,4974.758049417319
2,14, 4,14, 0,19, 0.00,60.00,Sunday
5263,4748.297809932869
2,14, 4,14, 0,20, 0.00,60.00,Sunday
5263,4581.628951810517
2,14, 4,14, 0,21, 0.00,60.00,Sunday
5263,4491.792899964159
2,14, 4,14, 0,22, 0.00,60.00,Sunday
5263,4448.951857366547
2,14, 4,14, 0,23, 0.00,60.00,Sunday
5263,4408.524127501595
2,14, 4,14, 0,24, 0.00,60.00,Sunday
5263,4353.666911520409
2,15, 4,15, 0, 1, 0.00,60.00,Monday
5263,4293.043532075238
2,15, 4,15, 0, 2, 0.00,60.00,Monday
5263,4236.8701513213855
2,15, 4,15, 0, 3, 0.00,60.00,Monday
5263,4134.798838272673
2,15, 4,15, 0, 4, 0.00,60.00,Monday
5263,4003.6186420678073
2,15, 4,15, 0, 5, 0.00,60.00,Monday
5263,3871.00975742784
2,15, 4,15, 0, 6, 0.00,60.00,Monday
5263,3821.7773383210556
2,15, 4,15, 0, 7, 0.00,60.00,Monday
5263,3896.101833932007
2,15, 4,15, 0, 8, 0.00,60.00,Monday
5263,16568.05515460088
2,15, 4,15, 0, 9, 0.00,60.00,Monday
5263,127797.70112710582
2,15, 4,15, 0,10, 0.00,60.00,Monday
5263,129414.23072373033
2,15, 4,15, 0,11, 0.00,60.00,Monday
5263,130682.13725143676
2,15, 4,15, 0,12, 0.00,60.00,Monday
5263,131199.95402886408
2,15, 4,15, 0,13, 0.00,60.00,Monday
5263,120358.26301071643
2,15, 4,15, 0,14, 0.00,60.00,Monday
5263,111157.31561068277
2,15, 4,15, 0,15, 0.00,60.00,Monday
5263,118977.2400080826
2,15, 4,15, 0,16, 0.00,60.00,Monday
5263,111269.13160790685
2,15, 4,15, 0,17, 0.00,60.00,Monday
5263,95982.5938036866
2,15, 4,15, 0,18, 0.00,60.00,Monday
5263,32281.46437559077
2,15, 4,15, 0,19, 0.00,60.00,Monday
5263,15506.644784334647
2,15, 4,15, 0,20, 0.00,60.00,Monday
5263,6261.003050027498
2,15, 4,15, 0,21, 0.00,60.00,Monday
5263,4812.31788152336
2,15, 4,15, 0,22, 0.00,60.00,Monday
5263,4366.223052034939
2,15, 4,15, 0,23, 0.00,60.00,Monday
5263,4332.325076581548
2,15, 4,15, 0,24, 0.00,60.00,Monday
5263,4222.757744885028
2,16, 4,16, 0, 1, 0.00,60.00,Tuesday
5263,4043.6356790585
2,16, 4,16, 0, 2, 0.00,60.00,Tuesday
5263,3851.444767293038
2,16, 4,16, 0, 3, 0.00,60.00,Tuesday
5263,3721.368604502804
2,16, 4,16, 0, 4, 0.00,60.00,Tuesday
5263,3674.3059300064783
2,16, 4,16, 0, 5, 0.00,60.00,Tuesday
5263,3627.3155608927786
2,16, 4,16, 0, 6, 0.00,60.00,Tuesday
5263,3719.7979191228537
2,16, 4,16, 0, 7, 0.00,60.00,Tuesday
5263,4041.951443958031
2,16, 4,16, 0, 8, 0.00,60.00,Tuesday
5263,11954.766860174897
2,16, 4,16, 0, 9, 0.00,60.00,Tuesday
5263,90381.98932921484
2,16, 4,16, 0,10, 0.00,60.00,Tuesday
5263,114489.97416548128
2,16, 4,16, 0,11, 0.00,60.00,Tuesday
5263,121033.17404889812
2,16, 4,16, 0,12, 0.00,60.00,Tuesday
5263,115135.29515038558
2,16, 4,16, 0,13, 0.00,60.00,Tuesday
5263,112112.25010070334
2,16, 4,16, 0,14, 0.00,60.00,Tuesday
5263,130983.59305157127
2,16, 4,16, 0,15, 0.00,60.00,Tuesday
5263,147957.88350027376
2,16, 4,16, 0,16, 0.00,60.00,Tuesday
5263,143897.36111026756
2,16, 4,16, 0,17, 0.00,60.00,Tuesday
5263,137660.63712722888
2,16, 4,16, 0,18, 0.00,60.00,Tuesday
5263,74008.11884749016
2,16, 4,16, 0,19, 0.00,60.00,Tuesday
5263,48389.106833941325
2,16, 4,16, 0,20, 0.00,60.00,Tuesday
5263,33021.491793395784
2,16, 4,16, 0,21, 0.00,60.00,Tuesday
5263,4546.9445729546305
2,16, 4,16, 0,22, 0.00,60.00,Tuesday
5263,4410.320929053343
2,16, 4,16, 0,23, 0.00,60.00,Tuesday
5263,4269.549147571727
2,16, 4,16, 0,24, 0.00,60.00,Tuesday
5263,4225.981345901818
2,17, 4,17, 0, 1, 0.00,60.00,Holiday
5263,4255.0327267487655
2,17, 4,17, 0, 2, 0.00,60.00,Holiday
5263,4280.569111420917
2,17, 4,17, 0, 3, 0.00,60.00,Holiday
5263,4210.197256000176
2,17, 4,17, 0, 4, 0.00,60.00,Holiday
5263,4077.051567292588
2,17, 4,17, 0, 5, 0.00,60.00,Holiday
5263,3948.3908023005915
2,17, 4,17, 0, 6, 0.00,60.00,Holiday
5263,3992.6070586407654
2,17, 4,17, 0, 7, 0.00,60.00,Holiday
5263,4269.3106787673905
2,17, 4,17, 0, 8, 0.00,60.00,Holiday
5263,4630.488252017906
2,17, 4,17, 0, 9, 0.00,60.00,Holiday
5263,4853.234769958137
2,17, 4,17, 0,10, 0.00,60.00,Holiday
5263,5020.386847079158
2,17, 4,17, 0,11, 0.00,60.00,Holiday
5263,5169.193060006063
2,17, 4,17, 0,12, 0.00,60.00,Holiday
5263,5275.202837004089
2,17, 4,17, 0,13, 0.00,60.00,Holiday
5263,5341.742377602842
2,17, 4,17, 0,14, 0.00,60.00,Holiday
5263,5420.711998931431
2,17, 4,17, 0,15, 0.00,60.00,Holiday
5263,5460.611689888396
2,17, 4,17, 0,16, 0.00,60.00,Holiday
5263,5464.071008498046
2,17, 4,17, 0,17, 0.00,60.00,Holiday
5263,5379.931820743785
2,17, 4,17, 0,18, 0.00,60.00,Holiday
5263,5183.187755461039
2,17, 4,17, 0,19, 0.00,60.00,Holiday
5263,4936.507656194511
2,17, 4,17, 0,20, 0.00,60.00,Holiday
5263,4772.890644985453
2,17, 4,17, 0,21, 0.00,60.00,Holiday
5263,4672.710481684932
2,17, 4,17, 0,22, 0.00,60.00,Holiday
5263,4546.453834271352
2,17, 4,17, 0,23, 0.00,60.00,Holiday
5263,4415.6952132608285
2,17, 4,17, 0,24, 0.00,60.00,Holiday
5263,4287.160562481804
2,18, 4,18, 0, 1, 0.00,60.00,Holiday
5263,4169.127066049637
2,18, 4,18, 0, 2, 0.00,60.00,Holiday
5263,4060.337827285286
2,18, 4,18, 0, 3, 0.00,60.00,Holiday
5263,3973.95176954943
2,18, 4,18, 0, 4, 0.00,60.00,Holiday
5263,3888.1375913542884
2,18, 4,18, 0, 5, 0.00,60.00,Holiday
5263,3805.2152646100953
2,18, 4,18, 0, 6, 0.00,60.00,Holiday
5263,3863.6032187169453
2,18, 4,18, 0, 7, 0.00,60.00,Holiday
5263,4134.991017342735
2,18, 4,18, 0, 8, 0.00,60.00,Holiday
5263,4485.182018459879
2,18, 4,18, 0, 9, 0.00,60.00,Holiday
5263,4755.798977511299
2,18, 4,18, 0,10, 0.00,60.00,Holiday
5263,4977.5146357919375
2,18, 4,18, 0,11, 0.00,60.00,Holiday
5263,5178.082072606639
2,18, 4,18, 0,12, 0.00,60.00,Holiday
5263,5346.258072035039
2,18, 4,18, 0,13, 0.00,60.00,Holiday
5263,5447.099696453888
2,18, 4,18, 0,14, 0.00,60.00,Holiday
5263,5490.911292924953
2,18, 4,18, 0,15, 0.00,60.00,Holiday
5263,5366.000576020012
2,18, 4,18, 0,16, 0.00,60.00,Holiday
5263,5144.293116156217
2,18, 4,18, 0,17, 0.00,60.00,Holiday
5263,4899.7373312683385
2,18, 4,18, 0,18, 0.00,60.00,Holiday
5263,4718.056507000988
2,18, 4,18, 0,19, 0.00,60.00,Holiday
5263,4609.818900611959
2,18, 4,18, 0,20, 0.00,60.00,Holiday
5263,4544.545861259537
2,18, 4,18, 0,21, 0.00,60.00,Holiday
5263,4461.176781119139
2,18, 4,18, 0,22, 0.00,60.00,Holiday
5263,4352.001658118262
2,18, 4,18, 0,23, 0.00,60.00,Holiday
5263,4253.965621750587
2,18, 4,18, 0,24, 0.00,60.00,Holiday
5263,4194.26934713226
2,19, 4,19, 0, 1, 0.00,60.00,Holiday
5263,4148.480321636685
2,19, 4,19, 0, 2, 0.00,60.00,Holiday
5263,4111.129883386182
2,19, 4,19, 0, 3, 0.00,60.00,Holiday
5263,4008.9292559768983
2,19, 4,19, 0, 4, 0.00,60.00,Holiday
5263,3836.749396217074
2,19, 4,19, 0, 5, 0.00,60.00,Holiday
5263,3674.4331004260443
2,19, 4,19, 0, 6, 0.00,60.00,Holiday
5263,3730.3933127111777
2,19, 4,19, 0, 7, 0.00,60.00,Holiday
5263,4065.991919826615
2,19, 4,19, 0, 8, 0.00,60.00,Holiday
5263,4515.732131328885
2,19, 4,19, 0, 9, 0.00,60.00,Holiday
5263,4851.072281865033
2,19, 4,19, 0,10, 0.00,60.00,Holiday
5263,5077.568608053447
2,19, 4,19, 0,11, 0.00,60.00,Holiday
5263,5253.403904347625
2,19, 4,19, 0,12, 0.00,60.00,Holiday
5263,5378.433151148678
2,19, 4,19, 0,13, 0.00,60.00,Holiday
5263,5465.082320939701
2,19, 4,19, 0,14, 0.00,60.00,Holiday
5263,5524.7309695123995
2,19, 4,19, 0,15, 0.00,60.00,Holiday
5263,5474.867468578946
2,19, 4,19, 0,16, 0.00,60.00,Holiday
5263,5389.809572419375
2,19, 4,19, 0,17, 0.00,60.00,Holiday
5263,5257.080134286699
2,19, 4,19, 0,18, 0.00,60.00,Holiday
5263,5053.627878046611
2,19, 4,19, 0,19, 0.00,60.00,Holiday
5263,4833.997618201586
2,19, 4,19, 0,20, 0.00,60.00,Holiday
5263,4673.308596896722
2,19, 4,19, 0,21, 0.00,60.00,Holiday
5263,4544.4798266091175
2,19, 4,19, 0,22, 0.00,60.00,Holiday
5263,4411.622855742904
2,19, 4,19, 0,23, 0.00,60.00,Holiday
5263,4261.37672428926
2,19, 4,19, 0,24, 0.00,60.00,Holiday
5263,4125.629119159735
2,20, 4,20, 0, 1, 0.00,60.00,Holiday
5263,4078.461452445992
2,20, 4,20, 0, 2, 0.00,60.00,Holiday
5263,4057.5332043807207
2,20, 4,20, 0, 3, 0.00,60.00,Holiday
5263,3984.9697949776796
2,20, 4,20, 0, 4, 0.00,60.00,Holiday
5263,3832.171840008641
2,20, 4,20, 0, 5, 0.00,60.00,Holiday
5263,3655.8966604494385
2,20, 4,20, 0, 6, 0.00,60.00,Holiday
5263,3744.721942773289
2,20, 4,20, 0, 7, 0.00,60.00,Holiday
5263,4159.849418132274
2,20, 4,20, 0, 8, 0.00,60.00,Holiday
5263,4610.634329553235
2,20, 4,20, 0, 9, 0.00,60.00,Holiday
5263,4862.191675052432
2,20, 4,20, 0,10, 0.00,60.00,Holiday
5263,5040.54192687813
2,20, 4,20, 0,11, 0.00,60.00,Holiday
5263,5186.799907460992
2,20, 4,20, 0,12, 0.00,60.00,Holiday
5263,5358.581398082654
2,20, 4,20, 0,13, 0.00,60.00,Holiday
5263,5494.101317728098
2,20, 4,20, 0,14, 0.00,60.00,Holiday
5263,5573.901407939437
2,20, 4,20, 0,15, 0.00,60.00,Holiday
5263,5517.692448823236
2,20, 4,20, 0,16, 0.00,60.00,Holiday
5263,5379.174318353715
2,20, 4,20, 0,17, 0.00,60.00,Holiday
5263,5202.168345493722
2,20, 4,20, 0,18, 0.00,60.00,Holiday
5263,5038.622872377314
2,20, 4,20, 0,19, 0.00,60.00,Holiday
5263,4898.943113877242
2,20, 4,20, 0,20, 0.00,60.00,Holiday
5263,4829.423264225204
2,20, 4,20, 0,21, 0.00,60.00,Holiday
5263,4750.500163456764
2,20, 4,20, 0,22, 0.00,60.00,Holiday
5263,4678.206442177184
2,20, 4,20, 0,23, 0.00,60.00,Holiday
5263,4591.458244662478
2,20, 4,20, 0,24, 0.00,60.00,Holiday
5263,4450.3477153058475
2,21, 4,21, 0, 1, 0.00,60.00,Holiday
5263,4292.237010063418
2,21, 4,21, 0, 2, 0.00,60.00,Holiday
5263,4130.901717844677
2,21, 4,21, 0, 3, 0.00,60.00,Holiday
5263,4031.5192007815763
2,21, 4,21, 0, 4, 0.00,60.00,Holiday
5263,3978.060976932685
2,21, 4,21, 0, 5, 0.00,60.00,Holiday
5263,3937.499062447547
2,21, 4,21, 0, 6, 0.00,60.00,Holiday
5263,4010.863453597109
2,21, 4,21, 0, 7, 0.00,60.00,Holiday
5263,4266.352452438449
2,21, 4,21, 0, 8, 0.00,60.00,Holiday
5263,4551.07013725328
2,21, 4,21, 0, 9, 0.00,60.00,Holiday
5263,4805.290065663076