Program Version,EnergyPlus, Version 8.7.0-78a111df4a, YMD=2019.11.25 09:50
1,5,Environment Title[],Latitude[deg],Longitude[deg],Time Zone[],Elevation[m]
2,6,Day of Simulation[],Month[],Day of Month[],DST Indicator[1=yes 0=no],Hour[],StartMinute[],EndMinute[],DayType
3,3,Cumulative Day of Simulation[],Month[],Day of Month[],DST Indicator[1=yes 0=no],DayType  ! When Daily Report Variables Requested
4,2,Cumulative Days of Simulation[],Month[]  ! When Monthly Report Variables Requested
5,1,Cumulative Days of Simulation[] ! When Run Period Report Variables Requested
2232,1,AF305DAYLIGHTCONTROL,Daylighting Reference Point 1 Illuminance [lux] !Hourly
2233,1,AF305DAYLIGHTCONTROL,Daylighting Reference Point 2 Illuminance [lux] !Hourly
5265,1,Whole Building,Facility Total Electric Demand Power [W] !Hourly
End of Data Dictionary
1,RUNPERIOD,  10.30, 123.97,   8.00,  24.00
2,1, 4, 1, 0, 1, 0.00,60.00,Monday
2232,0.0
2233,0.0
5265,8262.444828131602
2,1, 4, 1, 0, 2, 0.00,60.00,Monday
2232,0.0
2233,0.0
5265,8116.543540978463
2,1, 4, 1, 0, 3, 0.00,60.00,Monday
2232,0.0
2233,0.0
5265,8060.010417868926
2,1, 4, 1, 0, 4, 0.00,60.00,Monday
2232,0.0
2233,0.0
5265,8001.350887247093
2,1, 4, 1, 0, 5, 0.00,60.00,Monday
2232,0.0
2233,0.0
5265,7939.82883330588
2,1, 4, 1, 0, 6, 0.00,60.00,Monday
2232,41.27702194453163
2233,24.838173195066589
5265,7917.712809964846
2,1, 4, 1, 0, 7, 0.00,60.00,Monday
2232,348.0675083933684
2233,230.80437025598043
5265,7992.207510037767
2,1, 4, 1, 0, 8, 0.00,60.00,Monday
2232,685.1106927098522
2233,442.1076847208576
5265,15865.639139758534
2,1, 4, 1, 0, 9, 0.00,60.00,Monday
2232,835.9207072118842
2233,537.8685526861734
5265,136751.74361446189
2,1, 4, 1, 0,10, 0.00,60.00,Monday
2232,801.5259260633289
2233,525.1369450529957
5265,154024.45197618498
2,1, 4, 1, 0,11, 0.00,60.00,Monday
2232,634.9770529988008
2233,428.22746847801678
5265,163242.14443321515
2,1, 4, 1, 0,12, 0.00,60.00,Monday
2232,530.8235832989167
2233,365.5428801050043
5265,168078.5720790952
2,1, 4, 1, 0,13, 0.00,60.00,Monday
2232,555.013843093217
2233,374.23703901472569
5265,160331.09367627224
2,1, 4, 1, 0,14, 0.00,60.00,Monday
2232,615.5587584543867
2233,397.9980117019625
5265,152118.26985849517
2,1, 4, 1, 0,15, 0.00,60.00,Monday
2232,566.1604494972784
2233,353.65157625958138
5265,158291.29259736857
2,1, 4, 1, 0,16, 0.00,60.00,Monday
2232,466.39997806590898
2233,284.5460382253779
5265,146046.8410161094
2,1, 4, 1, 0,17, 0.00,60.00,Monday
2232,291.56829038774046
2233,175.44771292752737
5265,127580.29928761635
2,1, 4, 1, 0,18, 0.00,60.00,Monday
2232,56.75152394678967
2233,32.94295625763428
5265,43829.918898312106
2,1, 4, 1, 0,19, 0.00,60.00,Monday
2232,0.0
2233,0.0
5265,21716.139592600666
2,1, 4, 1, 0,20, 0.00,60.00,Monday
2232,0.0
2233,0.0
5265,8526.70940328951
2,1, 4, 1, 0,21, 0.00,60.00,Monday
2232,0.0
2233,0.0
5265,6541.7351154613425
2,1, 4, 1, 0,22, 0.00,60.00,Monday
2232,0.0
2233,0.0
5265,8390.449945051214
2,1, 4, 1, 0,23, 0.00,60.00,Monday
2232,0.0
2233,0.0
5265,8342.929536223266
2,1, 4, 1, 0,24, 0.00,60.00,Monday
2232,0.0
2233,0.0
5265,8329.116136131604
2,2, 4, 2, 0, 1, 0.00,60.00,Tuesday
2232,0.0
2233,0.0
5265,8317.14776544801
2,2, 4, 2, 0, 2, 0.00,60.00,Tuesday
2232,0.0
2233,0.0
5265,8300.46362939996
2,2, 4, 2, 0, 3, 0.00,60.00,Tuesday
2232,0.0
2233,0.0
5265,8283.371467849569
2,2, 4, 2, 0, 4, 0.00,60.00,Tuesday
2232,0.0
2233,0.0
5265,8281.460261026472
2,2, 4, 2, 0, 5, 0.00,60.00,Tuesday
2232,0.0
2233,0.0
5265,8279.301356055219
2,2, 4, 2, 0, 6, 0.00,60.00,Tuesday
2232,37.476667925688428
2233,22.911802343516667
5265,8277.789942551526
2,2, 4, 2, 0, 7, 0.00,60.00,Tuesday
2232,297.5380735533637
2233,199.95020635128038
5265,8279.380773963785
2,2, 4, 2, 0, 8, 0.00,60.00,Tuesday
2232,581.954043333043
2233,379.6387798385722
5265,14764.085866657553
2,2, 4, 2, 0, 9, 0.00,60.00,Tuesday
2232,799.1332238577503
2233,516.1050725242703
5265,108878.74034104462
2,2, 4, 2, 0,10, 0.00,60.00,Tuesday
2232,793.4085758600022
2233,520.5505221495836
5265,146959.70804479766
2,2, 4, 2, 0,11, 0.00,60.00,Tuesday
2232,616.0834095616277
2233,416.4789188114489
5265,160366.35572554309
2,2, 4, 2, 0,12, 0.00,60.00,Tuesday
2232,425.5742406541872
2233,298.45214842209608
5265,156430.72967472074
2,2, 4, 2, 0,13, 0.00,60.00,Tuesday
2232,406.99439257734977
2233,279.0996142993586
5265,154380.38885373504
2,2, 4, 2, 0,14, 0.00,60.00,Tuesday
2232,476.0402531590575
2233,309.0670967729962
5265,172871.00306897515
2,2, 4, 2, 0,15, 0.00,60.00,Tuesday
2232,481.0277226211072
2233,300.8281609824698
5265,189313.85360887668
2,2, 4, 2, 0,16, 0.00,60.00,Tuesday
2232,400.2401955380392
2233,245.6650463143665
5265,181919.86194244014
2,2, 4, 2, 0,17, 0.00,60.00,Tuesday
2232,262.5285673311853
2233,159.99471435242359
5265,175444.89000762045
2,2, 4, 2, 0,18, 0.00,60.00,Tuesday
2232,43.64803867030128
2233,26.165103808054075
5265,92228.78937036575
2,2, 4, 2, 0,19, 0.00,60.00,Tuesday
2232,0.0
2233,0.0
5265,60122.915982510516
2,2, 4, 2, 0,20, 0.00,60.00,Tuesday
2232,0.0
2233,0.0
5265,41658.138439108756
2,2, 4, 2, 0,21, 0.00,60.00,Tuesday
2232,0.0
2233,0.0
5265,6727.692286505359
2,2, 4, 2, 0,22, 0.00,60.00,Tuesday
2232,0.0
2233,0.0
5265,8411.985708341528
2,2, 4, 2, 0,23, 0.00,60.00,Tuesday
2232,0.0
2233,0.0
5265,8327.574335249978
2,2, 4, 2, 0,24, 0.00,60.00,Tuesday
2232,0.0
2233,0.0
5265,8273.89940696131
2,3, 4, 3, 0, 1, 0.00,60.00,Wednesday
2232,0.0
2233,0.0
5265,8226.010408290438
2,3, 4, 3, 0, 2, 0.00,60.00,Wednesday
2232,0.0
2233,0.0
5265,8185.959334921721
2,3, 4, 3, 0, 3, 0.00,60.00,Wednesday
2232,0.0
2233,0.0
5265,8139.804057888916
2,3, 4, 3, 0, 4, 0.00,60.00,Wednesday
2232,0.0
2233,0.0
5265,8100.004211335358
2,3, 4, 3, 0, 5, 0.00,60.00,Wednesday
2232,0.0
2233,0.0
5265,8060.049945651413
2,3, 4, 3, 0, 6, 0.00,60.00,Wednesday
2232,26.323447404880978
2233,17.328686520720138
5265,8049.786801819401
2,3, 4, 3, 0, 7, 0.00,60.00,Wednesday
2232,237.8961327305842
2233,161.38899425196204
5265,8121.305426959206
2,3, 4, 3, 0, 8, 0.00,60.00,Wednesday
2232,533.7202085280176
2233,347.8662192378899
5265,12949.089367668936
2,3, 4, 3, 0, 9, 0.00,60.00,Wednesday
2232,783.2034230749096
2233,506.3038164182728
5265,135936.32182298412
2,3, 4, 3, 0,10, 0.00,60.00,Wednesday
2232,799.0174869240562
2233,523.9063626377185
5265,149840.3540000443
2,3, 4, 3, 0,11, 0.00,60.00,Wednesday
2232,621.5704847665121
2233,419.90352816004136
5265,158905.81006860097
2,3, 4, 3, 0,12, 0.00,60.00,Wednesday
2232,438.0579710779078
2233,306.4056096738938
5265,162643.44428657267
2,3, 4, 3, 0,13, 0.00,60.00,Wednesday
2232,439.16157562159295
2233,300.08966814984827
5265,157297.2127691137
2,3, 4, 3, 0,14, 0.00,60.00,Wednesday
2232,517.556438105184
2233,335.48099580716515
5265,151807.80588528637
2,3, 4, 3, 0,15, 0.00,60.00,Wednesday
2232,482.05110502675719
2233,301.5025119483441
5265,158527.94195488993
2,3, 4, 3, 0,16, 0.00,60.00,Wednesday
2232,393.2929573286622
2233,241.97452112705188
5265,145106.65743710273
2,3, 4, 3, 0,17, 0.00,60.00,Wednesday
2232,235.53356853904959
2233,144.37429555438335
5265,120575.88144427499
2,3, 4, 3, 0,18, 0.00,60.00,Wednesday
2232,43.72935284133728
2233,26.224262962128397
5265,38196.921109673414
2,3, 4, 3, 0,19, 0.00,60.00,Wednesday
2232,0.0
2233,0.0
5265,17748.540040808133
2,3, 4, 3, 0,20, 0.00,60.00,Wednesday
2232,0.0
2233,0.0
5265,6503.152157374618
2,3, 4, 3, 0,21, 0.00,60.00,Wednesday
2232,0.0
2233,0.0
5265,5827.1938844942115
2,3, 4, 3, 0,22, 0.00,60.00,Wednesday
2232,0.0
2233,0.0
5265,8371.203993567628
2,3, 4, 3, 0,23, 0.00,60.00,Wednesday
2232,0.0
2233,0.0
5265,8288.383548538966
2,3, 4, 3, 0,24, 0.00,60.00,Wednesday
2232,0.0
2233,0.0
5265,8255.427511135464
2,4, 4, 4, 0, 1, 0.00,60.00,Thursday
2232,0.0
2233,0.0
5265,8229.764983973078
2,4, 4, 4, 0, 2, 0.00,60.00,Thursday
2232,0.0
2233,0.0
5265,8202.815865314962
2,4, 4, 4, 0, 3, 0.00,60.00,Thursday
2232,0.0
2233,0.0
5265,8173.491496414758
2,4, 4, 4, 0, 4, 0.00,60.00,Thursday
2232,0.0
2233,0.0
5265,8142.79412474688
2,4, 4, 4, 0, 5, 0.00,60.00,Thursday
2232,0.0
2233,0.0
5265,8119.279888006349
2,4, 4, 4, 0, 6, 0.00,60.00,Thursday
2232,15.922993774330826
2233,10.464650211966108
5265,8110.778108620486
2,4, 4, 4, 0, 7, 0.00,60.00,Thursday
2232,128.21703864059325
2233,84.38641440412288
5265,8177.301535524765
2,4, 4, 4, 0, 8, 0.00,60.00,Thursday
2232,308.0554432127797
2233,198.41957955505095
5265,14561.92350074077
2,4, 4, 4, 0, 9, 0.00,60.00,Thursday
2232,487.083280360042
2233,315.6009030325029
5265,102412.49231356489
2,4, 4, 4, 0,10, 0.00,60.00,Thursday
2232,548.639615400226
2233,360.889636421075
5265,141992.45615215714
2,4, 4, 4, 0,11, 0.00,60.00,Thursday
2232,527.8832516033399
2233,353.7479827897082
5265,146778.1472269291
2,4, 4, 4, 0,12, 0.00,60.00,Thursday
2232,473.377935114695
2233,319.54940218382429
5265,142707.97659685589
2,4, 4, 4, 0,13, 0.00,60.00,Thursday
2232,451.5951092713155
2233,302.5554006691616
5265,141489.89323726245
2,4, 4, 4, 0,14, 0.00,60.00,Thursday
2232,448.07739693994287
2233,292.4158594244787
5265,153341.45368129345
2,4, 4, 4, 0,15, 0.00,60.00,Thursday
2232,437.46384348982277
2233,277.4113526075634
5265,164799.22933543146
2,4, 4, 4, 0,16, 0.00,60.00,Thursday
2232,344.1484067643806
2233,215.08834705570374
5265,164516.9365765137
2,4, 4, 4, 0,17, 0.00,60.00,Thursday
2232,191.95282903797046
2233,120.27913472895303
5265,151456.44769449006
2,4, 4, 4, 0,18, 0.00,60.00,Thursday
2232,28.862601925770347
2233,17.919459542942034
5265,73814.07743404318
2,4, 4, 4, 0,19, 0.00,60.00,Thursday
2232,0.0
2233,0.0
5265,49852.2691662485
2,4, 4, 4, 0,20, 0.00,60.00,Thursday
2232,0.0
2233,0.0
5265,32976.51788098625
2,4, 4, 4, 0,21, 0.00,60.00,Thursday
2232,0.0
2233,0.0
5265,5839.865035796797
2,4, 4, 4, 0,22, 0.00,60.00,Thursday
2232,0.0
2233,0.0
5265,8383.406625989073
2,4, 4, 4, 0,23, 0.00,60.00,Thursday
2232,0.0
2233,0.0
5265,8302.688294710015
2,4, 4, 4, 0,24, 0.00,60.00,Thursday
2232,0.0
2233,0.0
5265,8274.298501809932
2,5, 4, 5, 0, 1, 0.00,60.00,Friday
2232,0.0
2233,0.0
5265,8270.82988865897
2,5, 4, 5, 0, 2, 0.00,60.00,Friday
2232,0.0
2233,0.0
5265,8267.71195649226
2,5, 4, 5, 0, 3, 0.00,60.00,Friday
2232,0.0
2233,0.0
5265,8249.219839252628
2,5, 4, 5, 0, 4, 0.00,60.00,Friday
2232,0.0
2233,0.0
5265,8204.424774267916
2,5, 4, 5, 0, 5, 0.00,60.00,Friday
2232,0.0
2233,0.0
5265,8153.947040014147
2,5, 4, 5, 0, 6, 0.00,60.00,Friday
2232,30.233436369088225
2233,19.729649732943157
5265,8134.302240434111
2,5, 4, 5, 0, 7, 0.00,60.00,Friday
2232,239.36214218208455
2233,162.84822182418189
5265,8172.709735847056
2,5, 4, 5, 0, 8, 0.00,60.00,Friday
2232,451.9482500883875
2233,294.1705613321853
5265,16291.038057771764
2,5, 4, 5, 0, 9, 0.00,60.00,Friday
2232,627.236888925128
2233,407.01293643553256
5265,103672.55915059422
2,5, 4, 5, 0,10, 0.00,60.00,Friday
2232,646.4610309486444
2233,425.87836888698629
5265,120871.0368193772
2,5, 4, 5, 0,11, 0.00,60.00,Friday
2232,559.2142151806502
2233,375.89134893087199
5265,130746.9805934796
2,5, 4, 5, 0,12, 0.00,60.00,Friday
2232,495.8109851992612
2233,335.66672653708067
5265,134731.87046286788
2,5, 4, 5, 0,13, 0.00,60.00,Friday
2232,450.318640271462
2233,301.7060096954035
5265,133793.02156881587
2,5, 4, 5, 0,14, 0.00,60.00,Friday
2232,426.7291438149393
2233,278.6419066278975
5265,141235.43670117708
2,5, 4, 5, 0,15, 0.00,60.00,Friday
2232,418.0582573943725
2233,265.2379527062098
5265,150664.4509471473
2,5, 4, 5, 0,16, 0.00,60.00,Friday
2232,355.3878370597524
2233,221.81465697136535
5265,140924.25878117697
2,5, 4, 5, 0,17, 0.00,60.00,Friday
2232,223.10406142542389
2233,137.55537655084064
5265,116007.61746498927
2,5, 4, 5, 0,18, 0.00,60.00,Friday
2232,36.15208416012535
2233,22.042726781066109
5265,43820.57653061778
2,5, 4, 5, 0,19, 0.00,60.00,Friday
2232,0.0
2233,0.0
5265,24605.511754083884
2,5, 4, 5, 0,20, 0.00,60.00,Friday
2232,0.0
2233,0.0
5265,15524.428080524644
2,5, 4, 5, 0,21, 0.00,60.00,Friday
2232,0.0
2233,0.0
5265,13575.183377588457
2,5, 4, 5, 0,22, 0.00,60.00,Friday
2232,0.0
2233,0.0
5265,8332.478151692725
2,5, 4, 5, 0,23, 0.00,60.00,Friday
2232,0.0
2233,0.0
5265,8300.51938257818
2,5, 4, 5, 0,24, 0.00,60.00,Friday
2232,0.0
2233,0.0
5265,8280.56652011718
2,6, 4, 6, 0, 1, 0.00,60.00,Saturday
2232,0.0
2233,0.0
5265,8270.723382549617
2,6, 4, 6, 0, 2, 0.00,60.00,Saturday
2232,0.0
2233,0.0
5265,8264.340849827082
2,6, 4, 6, 0, 3, 0.00,60.00,Saturday
2232,0.0
2233,0.0
5265,8240.924181452217
2,6, 4, 6, 0, 4, 0.00,60.00,Saturday
2232,0.0
2233,0.0
5265,8187.168280928593
2,6, 4, 6, 0, 5, 0.00,60.00,Saturday
2232,0.0
2233,0.0
5265,8117.632303375707
2,6, 4, 6, 0, 6, 0.00,60.00,Saturday
2232,17.013231692150869
2233,11.220204897689309
5265,8077.956956523817
2,6, 4, 6, 0, 7, 0.00,60.00,Saturday
2232,137.88225871476076
2233,90.85986483358471
5265,8080.859771758859
2,6, 4, 6, 0, 8, 0.00,60.00,Saturday
2232,338.7182507773744
2233,218.26169915594526
5265,8108.897164678128
2,6, 4, 6, 0, 9, 0.00,60.00,Saturday
2232,503.8109904770574
2233,326.4394014565102
5265,35174.866718208454
2,6, 4, 6, 0,10, 0.00,60.00,Saturday
2232,547.4005793354853
2233,360.0972024913224
5265,48698.59193837288
2,6, 4, 6, 0,11, 0.00,60.00,Saturday
2232,506.63821036636389
2233,339.2400371077652
5265,56423.2117461111
2,6, 4, 6, 0,12, 0.00,60.00,Saturday
2232,469.6414677661678
2233,316.63393476521227
5265,49473.896986322165
2,6, 4, 6, 0,13, 0.00,60.00,Saturday
2232,443.72186423025638
2233,296.95764899535558
5265,55863.721610093744
2,6, 4, 6, 0,14, 0.00,60.00,Saturday
2232,425.7654454508475
2233,278.01255396565406
5265,52287.81113712341
2,6, 4, 6, 0,15, 0.00,60.00,Saturday
2232,424.5671367446025
2233,269.3448842400793
5265,54653.45130634242
2,6, 4, 6, 0,16, 0.00,60.00,Saturday
2232,354.3666908536804
2233,221.37327036337306
5265,49449.06542741169
2,6, 4, 6, 0,17, 0.00,60.00,Saturday
2232,207.07653635334575
2233,128.75447467354523
5265,40428.76499601569
2,6, 4, 6, 0,18, 0.00,60.00,Saturday
2232,31.71123377145909
2233,19.528719587401839
5265,36626.003163246634
2,6, 4, 6, 0,19, 0.00,60.00,Saturday
2232,0.0
2233,0.0
5265,29281.75703701093
2,6, 4, 6, 0,20, 0.00,60.00,Saturday
2232,0.0
2233,0.0
5265,13968.148732604624
2,6, 4, 6, 0,21, 0.00,60.00,Saturday
2232,0.0
2233,0.0
5265,12805.829457527405
2,6, 4, 6, 0,22, 0.00,60.00,Saturday
2232,0.0
2233,0.0
5265,8305.042209851565
2,6, 4, 6, 0,23, 0.00,60.00,Saturday
2232,0.0
2233,0.0
5265,8237.825033618801
2,6, 4, 6, 0,24, 0.00,60.00,Saturday
2232,0.0
2233,0.0
5265,8214.688418454682
2,7, 4, 7, 0, 1, 0.00,60.00,Sunday
2232,0.0
2233,0.0
5265,8200.189398996412
2,7, 4, 7, 0, 2, 0.00,60.00,Sunday
2232,0.0
2233,0.0
5265,8186.56970046651
2,7, 4, 7, 0, 3, 0.00,60.00,Sunday
2232,0.0
2233,0.0
5265,8178.607585474819
2,7, 4, 7, 0, 4, 0.00,60.00,Sunday
2232,0.0
2233,0.0
5265,8173.9604783186
2,7, 4, 7, 0, 5, 0.00,60.00,Sunday
2232,0.0
2233,0.0
5265,8163.75914207993
2,7, 4, 7, 0, 6, 0.00,60.00,Sunday
2232,54.5092736836342
2233,32.55379144664051
5265,8191.525494207588
2,7, 4, 7, 0, 7, 0.00,60.00,Sunday
2232,428.8523934601687
2233,282.013328992429
5265,8275.43200517607
2,7, 4, 7, 0, 8, 0.00,60.00,Sunday
2232,764.2749014498877
2233,488.9486328570981
5265,8369.69289592043
2,7, 4, 7, 0, 9, 0.00,60.00,Sunday
2232,889.8619525913933
2233,568.7029733165841
5265,8432.43385457208
2,7, 4, 7, 0,10, 0.00,60.00,Sunday
2232,829.6440298954477
2233,541.6566125709561
5265,8460.019310355216
2,7, 4, 7, 0,11, 0.00,60.00,Sunday
2232,684.3665363773547
2233,459.8363980191652
5265,8476.652358849371
2,7, 4, 7, 0,12, 0.00,60.00,Sunday
2232,492.3581061718601
2233,340.6734955940893
5265,8484.157233288897
2,7, 4, 7, 0,13, 0.00,60.00,Sunday
2232,485.1522681012154
2233,329.4544691645036
5265,8492.200538402854
2,7, 4, 7, 0,14, 0.00,60.00,Sunday
2232,549.2753279456815
2233,355.94961101788479
5265,8504.650424497908
2,7, 4, 7, 0,15, 0.00,60.00,Sunday
2232,542.5086931122913
2233,338.6851305084057
5265,8523.297957210401
2,7, 4, 7, 0,16, 0.00,60.00,Sunday
2232,427.81322540153698
2233,262.0797216102038
5265,8538.377900234967
2,7, 4, 7, 0,17, 0.00,60.00,Sunday
2232,241.78181045593275
2233,147.76653482906216
5265,8533.478990391905
2,7, 4, 7, 0,18, 0.00,60.00,Sunday
2232,44.23688802865382
2233,26.472271663958627
5265,8514.03298989879
2,7, 4, 7, 0,19, 0.00,60.00,Sunday
2232,0.0
2233,0.0
5265,8494.21917721936
2,7, 4, 7, 0,20, 0.00,60.00,Sunday
2232,0.0
2233,0.0
5265,8477.051854455121
2,7, 4, 7, 0,21, 0.00,60.00,Sunday
2232,0.0
2233,0.0
5265,8462.31005586864
2,7, 4, 7, 0,22, 0.00,60.00,Sunday
2232,0.0
2233,0.0
5265,8437.188456376949
2,7, 4, 7, 0,23, 0.00,60.00,Sunday
2232,0.0
2233,0.0
5265,8402.120754167137
2,7, 4, 7, 0,24, 0.00,60.00,Sunday
2232,0.0
2233,0.0
5265,8373.17346751239
2,8, 4, 8, 0, 1, 0.00,60.00,Monday
2232,0.0
2233,0.0
5265,8361.126503722526
2,8, 4, 8, 0, 2, 0.00,60.00,Monday
2232,0.0
2233,0.0
5265,8344.708847942273
2,8, 4, 8, 0, 3, 0.00,60.00,Monday
2232,0.0
2233,0.0
5265,8315.295020644437
2,8, 4, 8, 0, 4, 0.00,60.00,Monday
2232,0.0
2233,0.0
5265,8276.872483523044
2,8, 4, 8, 0, 5, 0.00,60.00,Monday
2232,0.0
2233,0.0
5265,8232.437071723512
2,8, 4, 8, 0, 6, 0.00,60.00,Monday
2232,51.91838374071321
2233,31.32177532237883
5265,8221.5843905382
2,8, 4, 8, 0, 7, 0.00,60.00,Monday
2232,396.1437927970146
2233,262.6772244082501
5265,8261.668573170917
2,8, 4, 8, 0, 8, 0.00,60.00,Monday
2232,664.2713280077818
2233,430.44621823455858
5265,20818.71150788001
2,8, 4, 8, 0, 9, 0.00,60.00,Monday
2232,766.3806143549797
2233,495.6452907420442
5265,155289.94506312914
2,8, 4, 8, 0,10, 0.00,60.00,Monday
2232,725.9566416401921
2233,477.6136536423398
5265,166825.27722469485
2,8, 4, 8, 0,11, 0.00,60.00,Monday
2232,545.099906349575
2233,370.0530819023102
5265,173589.97594539808
2,8, 4, 8, 0,12, 0.00,60.00,Monday
2232,379.78132872576756
2233,268.0271576645154
5265,176999.8042859605
2,8, 4, 8, 0,13, 0.00,60.00,Monday
2232,429.1304083092236
2233,293.6097613018316
5265,168701.3709316974
2,8, 4, 8, 0,14, 0.00,60.00,Monday
2232,519.7756614930701
2233,336.82188463768167
5265,159842.54481710576
2,8, 4, 8, 0,15, 0.00,60.00,Monday
2232,539.1172623442848
2233,336.5202151859854
5265,166198.24814892535
2,8, 4, 8, 0,16, 0.00,60.00,Monday
2232,458.0144322430377
2233,279.7079936054737
5265,154301.38233993739
2,8, 4, 8, 0,17, 0.00,60.00,Monday
2232,289.29900191268686
2233,174.1093309578886
5265,135332.7127300374
2,8, 4, 8, 0,18, 0.00,60.00,Monday
2232,55.323621614826659
2233,32.17645649916104
5265,45546.24270446977
2,8, 4, 8, 0,19, 0.00,60.00,Monday
2232,0.0
2233,0.0
5265,22481.579657819613
2,8, 4, 8, 0,20, 0.00,60.00,Monday
2232,0.0
2233,0.0
5265,8749.036117771497
2,8, 4, 8, 0,21, 0.00,60.00,Monday
2232,0.0
2233,0.0
5265,6737.6658984815185
2,8, 4, 8, 0,22, 0.00,60.00,Monday
2232,0.0
2233,0.0
5265,8410.745382931023
2,8, 4, 8, 0,23, 0.00,60.00,Monday
2232,0.0
2233,0.0
5265,8374.502592316932
2,8, 4, 8, 0,24, 0.00,60.00,Monday
2232,0.0
2233,0.0
5265,8361.766391266763
2,9, 4, 9, 0, 1, 0.00,60.00,Holiday
2232,0.0
2233,0.0
5265,8342.251621966772
2,9, 4, 9, 0, 2, 0.00,60.00,Holiday
2232,0.0
2233,0.0
5265,8324.834363562879
2,9, 4, 9, 0, 3, 0.00,60.00,Holiday
2232,0.0
2233,0.0
5265,8306.495477808783
2,9, 4, 9, 0, 4, 0.00,60.00,Holiday
2232,0.0
2233,0.0
5265,8288.98556189556
2,9, 4, 9, 0, 5, 0.00,60.00,Holiday
2232,0.0
2233,0.0
5265,8268.864362729822
2,9, 4, 9, 0, 6, 0.00,60.00,Holiday
2232,85.92797541170677
2233,48.408412604891008
5265,8273.162520393318
2,9, 4, 9, 0, 7, 0.00,60.00,Holiday
2232,602.0882299668154
2233,386.03814974151347
5265,8302.154281386282
2,9, 4, 9, 0, 8, 0.00,60.00,Holiday
2232,816.4494080643116
2233,520.8307591902944
5265,8347.407496325248
2,9, 4, 9, 0, 9, 0.00,60.00,Holiday
2232,832.2620673154402
2233,536.4086024357701
5265,8382.625817463517
2,9, 4, 9, 0,10, 0.00,60.00,Holiday
2232,822.3704225442833
2233,538.1101757855278
5265,8451.609451104408
2,9, 4, 9, 0,11, 0.00,60.00,Holiday
2232,707.5029809251788
2233,474.8061204915248
5265,8514.392693003614
2,9, 4, 9, 0,12, 0.00,60.00,Holiday
2232,541.395839331195
2233,372.56228149458937
5265,8535.406142854428
2,9, 4, 9, 0,13, 0.00,60.00,Holiday
2232,494.5465881784176
2233,335.3403252432513
5265,8538.468095447972
2,9, 4, 9, 0,14, 0.00,60.00,Holiday
2232,551.6200439369373
2233,357.4162992863273
5265,8528.275276358632
2,9, 4, 9, 0,15, 0.00,60.00,Holiday
2232,549.7272731492671
2233,343.24120038515459
5265,8516.500200857272
2,9, 4, 9, 0,16, 0.00,60.00,Holiday
2232,462.1299036682761
2233,281.97505749232
5265,8501.40785709255
2,9, 4, 9, 0,17, 0.00,60.00,Holiday
2232,287.1128308112183
2233,172.93650783368114
5265,8480.977673960131
2,9, 4, 9, 0,18, 0.00,60.00,Holiday
2232,51.20420047612702
2233,29.959630637755827
5265,8459.94913941216
2,9, 4, 9, 0,19, 0.00,60.00,Holiday
2232,0.0
2233,0.0
5265,8435.656556533835
2,9, 4, 9, 0,20, 0.00,60.00,Holiday
2232,0.0
2233,0.0
5265,8409.614840370683
2,9, 4, 9, 0,21, 0.00,60.00,Holiday
2232,0.0
2233,0.0
5265,8385.921612963586
2,9, 4, 9, 0,22, 0.00,60.00,Holiday
2232,0.0
2233,0.0
5265,8360.554752373837
2,9, 4, 9, 0,23, 0.00,60.00,Holiday
2232,0.0
2233,0.0
5265,8338.328482583946
2,9, 4, 9, 0,24, 0.00,60.00,Holiday
2232,0.0
2233,0.0
5265,8318.172784049237
2,10, 4,10, 0, 1, 0.00,60.00,Wednesday
2232,0.0
2233,0.0
5265,8303.691664471438
2,10, 4,10, 0, 2, 0.00,60.00,Wednesday
2232,0.0
2233,0.0
5265,8291.835077694455
2,10, 4,10, 0, 3, 0.00,60.00,Wednesday
2232,0.0
2233,0.0
5265,8280.717196128406
2,10, 4,10, 0, 4, 0.00,60.00,Wednesday
2232,0.0
2233,0.0
5265,8272.049487480503
2,10, 4,10, 0, 5, 0.00,60.00,Wednesday
2232,0.0
2233,0.0
5265,8265.790986056258
2,10, 4,10, 0, 6, 0.00,60.00,Wednesday
2232,57.549000700880778
2233,34.58777092825021
5265,8274.27904307139
2,10, 4,10, 0, 7, 0.00,60.00,Wednesday
2232,430.0872597523837
2233,284.15093352605529
5265,8323.376713529693
2,10, 4,10, 0, 8, 0.00,60.00,Wednesday
2232,720.3201370552575
2233,464.27675404904127
5265,17632.468987818513
2,10, 4,10, 0, 9, 0.00,60.00,Wednesday
2232,862.9910141862046
2233,555.0171462906686
5265,150025.2338230166
2,10, 4,10, 0,10, 0.00,60.00,Wednesday
2232,815.1411659547033
2233,533.8481572228051
5265,160934.8552050886
2,10, 4,10, 0,11, 0.00,60.00,Wednesday
2232,622.8545102435709
2233,420.7914349294645
5265,167982.670544254
2,10, 4,10, 0,12, 0.00,60.00,Wednesday
2232,446.78605817927339
2233,311.928858578414
5265,171532.15011390078
2,10, 4,10, 0,13, 0.00,60.00,Wednesday
2232,448.10199972430339
2233,305.78312486291136
5265,166584.27404989894
2,10, 4,10, 0,14, 0.00,60.00,Wednesday
2232,492.7385659205791
2233,319.82428242084066
5265,160066.84793086747
2,10, 4,10, 0,15, 0.00,60.00,Wednesday
2232,464.38443799198816
2233,293.3465274573435
5265,166227.27867559633
2,10, 4,10, 0,16, 0.00,60.00,Wednesday
2232,351.37003124546308
2233,219.58976722970739
5265,151597.18041824993
2,10, 4,10, 0,17, 0.00,60.00,Wednesday
2232,182.78146689765576
2233,114.85234419830114
5265,126186.75757938065
2,10, 4,10, 0,18, 0.00,60.00,Wednesday
2232,27.973558964907299
2233,17.39228100809965
5265,39815.670614260984
2,10, 4,10, 0,19, 0.00,60.00,Wednesday
2232,0.0
2233,0.0
5265,18475.812201691344
2,10, 4,10, 0,20, 0.00,60.00,Wednesday
2232,0.0
2233,0.0
5265,6782.38497202897
2,10, 4,10, 0,21, 0.00,60.00,Wednesday
2232,0.0
2233,0.0
5265,6234.020293933546
2,10, 4,10, 0,22, 0.00,60.00,Wednesday
2232,0.0
2233,0.0
5265,8376.514582017
2,10, 4,10, 0,23, 0.00,60.00,Wednesday
2232,0.0
2233,0.0
5265,8320.17587396853
2,10, 4,10, 0,24, 0.00,60.00,Wednesday
2232,0.0
2233,0.0
5265,8308.557889063166
2,11, 4,11, 0, 1, 0.00,60.00,Thursday
2232,0.0
2233,0.0
5265,8299.6022958573
2,11, 4,11, 0, 2, 0.00,60.00,Thursday
2232,0.0
2233,0.0
5265,8297.246564998019
2,11, 4,11, 0, 3, 0.00,60.00,Thursday
2232,0.0
2233,0.0
5265,8278.262294596376
2,11, 4,11, 0, 4, 0.00,60.00,Thursday
2232,0.0
2233,0.0
5265,8234.465665669355
2,11, 4,11, 0, 5, 0.00,60.00,Thursday
2232,0.0
2233,0.0
5265,8184.5495790508785
2,11, 4,11, 0, 6, 0.00,60.00,Thursday
2232,34.23522133736377
2233,22.612836583722247
5265,8171.320112402726
2,11, 4,11, 0, 7, 0.00,60.00,Thursday
2232,216.55121825449133
2233,146.94535972257496
5265,8228.324858977283
2,11, 4,11, 0, 8, 0.00,60.00,Thursday
2232,406.5818503479633
2233,263.14864575859937
5265,16274.157037239223
2,11, 4,11, 0, 9, 0.00,60.00,Thursday
2232,592.9076226792403
2233,384.34877483449847
5265,105711.0022720413
2,11, 4,11, 0,10, 0.00,60.00,Thursday
2232,609.2811306582689
2233,400.9862025465834
5265,141585.62628044573
2,11, 4,11, 0,11, 0.00,60.00,Thursday
2232,545.4186600269367
2233,366.01148565733208
5265,144953.1201803398
2,11, 4,11, 0,12, 0.00,60.00,Thursday
2232,506.411830166922
2233,343.90353996466657
5265,143184.83655801434
2,11, 4,11, 0,13, 0.00,60.00,Thursday
2232,487.89963816884008
2233,328.533602602269
5265,145490.98991275527
2,11, 4,11, 0,14, 0.00,60.00,Thursday
2232,488.805211213705
2233,319.38845369795089
5265,160526.50483979734
2,11, 4,11, 0,15, 0.00,60.00,Thursday
2232,457.02674742841148
2233,289.73495517444959
5265,173120.72122625679
2,11, 4,11, 0,16, 0.00,60.00,Thursday
2232,361.1756617685599
2233,225.45079142335104
5265,171819.10445484127
2,11, 4,11, 0,17, 0.00,60.00,Thursday
2232,211.25826218219687
2233,131.1267426121737
5265,158009.59918078086
2,11, 4,11, 0,18, 0.00,60.00,Thursday
2232,35.522947878308468
2233,21.968130829728965
5265,76203.70999339843
2,11, 4,11, 0,19, 0.00,60.00,Thursday
2232,0.0
2233,0.0
5265,52038.759601026104
2,11, 4,11, 0,20, 0.00,60.00,Thursday
2232,0.0
2233,0.0
5265,34808.96838483938
2,11, 4,11, 0,21, 0.00,60.00,Thursday
2232,0.0
2233,0.0
5265,6381.974246792117
2,11, 4,11, 0,22, 0.00,60.00,Thursday
2232,0.0
2233,0.0
5265,8400.44609262837
2,11, 4,11, 0,23, 0.00,60.00,Thursday
2232,0.0
2233,0.0
5265,8315.420156566879
2,11, 4,11, 0,24, 0.00,60.00,Thursday
2232,0.0
2233,0.0
5265,8266.380594174176
2,12, 4,12, 0, 1, 0.00,60.00,Friday
2232,0.0
2233,0.0
5265,8225.093946049948
2,12, 4,12, 0, 2, 0.00,60.00,Friday
2232,0.0
2233,0.0
5265,8177.000053456384
2,12, 4,12, 0, 3, 0.00,60.00,Friday
2232,0.0
2233,0.0
5265,8138.691427984058
2,12, 4,12, 0, 4, 0.00,60.00,Friday
2232,0.0
2233,0.0
5265,8125.929647894321
2,12, 4,12, 0, 5, 0.00,60.00,Friday
2232,0.0
2233,0.0
5265,8118.820947159701
2,12, 4,12, 0, 6, 0.00,60.00,Friday
2232,46.181915549379258
2233,29.81240685624012
5265,8156.632486211968
2,12, 4,12, 0, 7, 0.00,60.00,Friday
2232,298.95561870990357
2233,204.99576170409436
5265,8279.712550846198
2,12, 4,12, 0, 8, 0.00,60.00,Friday
2232,587.0140799856395
2233,382.9764944417762
5265,21443.388953464844
2,12, 4,12, 0, 9, 0.00,60.00,Friday
2232,734.0237580985009
2233,475.5951967718399
5265,120417.18816277756
2,12, 4,12, 0,10, 0.00,60.00,Friday
2232,696.6241823946981
2233,458.71074462204509
5265,134733.2759366861
2,12, 4,12, 0,11, 0.00,60.00,Friday
2232,569.9484353610638
2233,383.5925970249609
5265,141032.84803596035
2,12, 4,12, 0,12, 0.00,60.00,Friday
2232,495.76503743410879
2233,338.88616440923786
5265,144180.9996435483
2,12, 4,12, 0,13, 0.00,60.00,Friday
2232,415.8311558453459
2233,283.8727874146279
5265,145775.22535868109
2,12, 4,12, 0,14, 0.00,60.00,Friday
2232,509.54923414935146
2233,330.2159823268846
5265,155094.3707585433
2,12, 4,12, 0,15, 0.00,60.00,Friday
2232,504.74328856769906
2233,315.4522686694955
5265,165245.47852956449
2,12, 4,12, 0,16, 0.00,60.00,Friday
2232,392.3385735778202
2233,241.11942551766286
5265,154069.02727001863
2,12, 4,12, 0,17, 0.00,60.00,Friday
2232,228.32301163448225
2233,140.17186356204773
5265,126487.0137775663
2,12, 4,12, 0,18, 0.00,60.00,Friday
2232,42.70559986353166
2233,25.632228002111803
5265,46282.54602212773
2,12, 4,12, 0,19, 0.00,60.00,Friday
2232,0.0
2233,0.0
5265,25590.519554899136
2,12, 4,12, 0,20, 0.00,60.00,Friday
2232,0.0
2233,0.0
5265,16011.308340932077
2,12, 4,12, 0,21, 0.00,60.00,Friday
2232,0.0
2233,0.0
5265,13571.930063963327
2,12, 4,12, 0,22, 0.00,60.00,Friday
2232,0.0
2233,0.0
5265,8354.8018205213
2,12, 4,12, 0,23, 0.00,60.00,Friday
2232,0.0
2233,0.0
5265,8346.732967058217
2,12, 4,12, 0,24, 0.00,60.00,Friday
2232,0.0
2233,0.0
5265,8320.437165751095
2,13, 4,13, 0, 1, 0.00,60.00,Saturday
2232,0.0
2233,0.0
5265,8246.3913903016
2,13, 4,13, 0, 2, 0.00,60.00,Saturday
2232,0.0
2233,0.0
5265,8159.0833261384905
2,13, 4,13, 0, 3, 0.00,60.00,Saturday
2232,0.0
2233,0.0
5265,8100.496142592692
2,13, 4,13, 0, 4, 0.00,60.00,Saturday
2232,0.0
2233,0.0
5265,8073.484059220135
2,13, 4,13, 0, 5, 0.00,60.00,Saturday
2232,0.0
2233,0.0
5265,8058.09105330677
2,13, 4,13, 0, 6, 0.00,60.00,Saturday
2232,91.88771693138738
2233,53.92017164694986
5265,8084.550786953488
2,13, 4,13, 0, 7, 0.00,60.00,Saturday
2232,529.5002356789154
2233,349.85113892927708
5265,8183.802461790937
2,13, 4,13, 0, 8, 0.00,60.00,Saturday
2232,816.2008932195621
2233,521.1322834989666
5265,8303.931269739905
2,13, 4,13, 0, 9, 0.00,60.00,Saturday
2232,902.257735462755
2233,575.5728672577707
5265,49828.205134521064
2,13, 4,13, 0,10, 0.00,60.00,Saturday
2232,907.9926250772972
2233,591.0311151002833
5265,74370.27124574593
2,13, 4,13, 0,11, 0.00,60.00,Saturday
2232,721.6565955419416
2233,483.5394211568126
5265,86826.69362871479
2,13, 4,13, 0,12, 0.00,60.00,Saturday
2232,556.7195285122198
2233,382.1978159507109
5265,79455.90840015792
2,13, 4,13, 0,13, 0.00,60.00,Saturday
2232,552.184893621642
2233,372.350381593206
5265,67467.6883258275
2,13, 4,13, 0,14, 0.00,60.00,Saturday
2232,614.0335174695124
2233,396.73923438528279
5265,62130.07237250622
2,13, 4,13, 0,15, 0.00,60.00,Saturday
2232,551.1297341494231
2233,344.23417504113339
5265,62229.82749711378
2,13, 4,13, 0,16, 0.00,60.00,Saturday
2232,448.81219841431058
2233,274.35217404097
5265,55593.43957701791
2,13, 4,13, 0,17, 0.00,60.00,Saturday
2232,229.01562540806433
2233,140.45763782786086
5265,45836.43510391081
2,13, 4,13, 0,18, 0.00,60.00,Saturday
2232,37.8341660801706
2233,22.931284041636276
5265,38381.21016613942
2,13, 4,13, 0,19, 0.00,60.00,Saturday
2232,0.0
2233,0.0
5265,29835.532891780927
2,13, 4,13, 0,20, 0.00,60.00,Saturday
2232,0.0
2233,0.0
5265,16107.48524200317
2,13, 4,13, 0,21, 0.00,60.00,Saturday
2232,0.0
2233,0.0
5265,14908.68714165192
2,13, 4,13, 0,22, 0.00,60.00,Saturday
2232,0.0
2233,0.0
5265,8377.400223947967
2,13, 4,13, 0,23, 0.00,60.00,Saturday
2232,0.0
2233,0.0
5265,8341.807235177488
2,13, 4,13, 0,24, 0.00,60.00,Saturday
2232,0.0
2233,0.0
5265,8332.332965851723
2,14, 4,14, 0, 1, 0.00,60.00,Sunday
2232,0.0