Program Version,EnergyPlus, Version 8.7.0-78a111df4a, YMD=2019.10.24 15:35
1,5,Environment Title[],Latitude[deg],Longitude[deg],Time Zone[],Elevation[m]
2,6,Day of Simulation[],Month[],Day of Month[],DST Indicator[1=yes 0=no],Hour[],StartMinute[],EndMinute[],DayType
3,3,Cumulative Day of Simulation[],Month[],Day of Month[],DST Indicator[1=yes 0=no],DayType  ! When Daily Report Variables Requested
4,2,Cumulative Days of Simulation[],Month[]  ! When Monthly Report Variables Requested
5,1,Cumulative Days of Simulation[] ! When Run Period Report Variables Requested
6,1,Environment,Site Outdoor Air Drybulb Temperature [C] !Hourly
5264,1,Whole Building,Facility Total Electric Demand Power [W] !Hourly
End of Data Dictionary
1,RUNPERIOD,  10.30, 123.97,   8.00,  24.00
2,1, 4, 1, 0, 1, 0.00,60.00,Monday
6,27.233333333333336
5264,7931.502119250251
2,1, 4, 1, 0, 2, 0.00,60.00,Monday
6,26.724999999999999
5264,7649.144638721446
2,1, 4, 1, 0, 3, 0.00,60.00,Monday
6,26.133333333333338
5264,7471.905109150276
2,1, 4, 1, 0, 4, 0.00,60.00,Monday
6,25.275000000000003
5264,7284.518048093979
2,1, 4, 1, 0, 5, 0.00,60.00,Monday
6,24.375
5264,7096.499436204092
2,1, 4, 1, 0, 6, 0.00,60.00,Monday
6,24.46666666666667
5264,7058.224653104019
2,1, 4, 1, 0, 7, 0.00,60.00,Monday
6,25.5
5264,7222.392367022049
2,1, 4, 1, 0, 8, 0.00,60.00,Monday
6,26.816666666666668
5264,30178.064913017046
2,1, 4, 1, 0, 9, 0.00,60.00,Monday
6,27.983333333333336
5264,74223.21579342257
2,1, 4, 1, 0,10, 0.00,60.00,Monday
6,28.98333333333333
5264,111207.56252620938
2,1, 4, 1, 0,11, 0.00,60.00,Monday
6,29.808333333333335
5264,108957.7706878427
2,1, 4, 1, 0,12, 0.00,60.00,Monday
6,30.39166666666667
5264,145692.2084304137
2,1, 4, 1, 0,13, 0.00,60.00,Monday
6,30.71666666666667
5264,144750.0207945842
2,1, 4, 1, 0,14, 0.00,60.00,Monday
6,30.8
5264,168704.70608551985
2,1, 4, 1, 0,15, 0.00,60.00,Monday
6,30.625
5264,179179.60904268255
2,1, 4, 1, 0,16, 0.00,60.00,Monday
6,30.266666666666667
5264,162582.0953359821
2,1, 4, 1, 0,17, 0.00,60.00,Monday
6,29.866666666666665
5264,144000.90689667024
2,1, 4, 1, 0,18, 0.00,60.00,Monday
6,29.525000000000003
5264,54855.06860949832
2,1, 4, 1, 0,19, 0.00,60.00,Monday
6,29.224999999999999
5264,26956.384545163008
2,1, 4, 1, 0,20, 0.00,60.00,Monday
6,28.925
5264,11261.39319693471
2,1, 4, 1, 0,21, 0.00,60.00,Monday
6,28.625
5264,8725.113394656088
2,1, 4, 1, 0,22, 0.00,60.00,Monday
6,28.325
5264,8287.218249217885
2,1, 4, 1, 0,23, 0.00,60.00,Monday
6,28.025000000000003
5264,8278.395060137722
2,1, 4, 1, 0,24, 0.00,60.00,Monday
6,27.78333333333333
5264,8263.208196580206
2,2, 4, 2, 0, 1, 0.00,60.00,Tuesday
6,27.641666666666667
5264,8058.5302471338555
2,2, 4, 2, 0, 2, 0.00,60.00,Tuesday
6,27.483333333333336
5264,8023.605157985233
2,2, 4, 2, 0, 3, 0.00,60.00,Tuesday
6,27.34166666666667
5264,7950.427254793885
2,2, 4, 2, 0, 4, 0.00,60.00,Tuesday
6,27.3
5264,7914.079816299721
2,2, 4, 2, 0, 5, 0.00,60.00,Tuesday
6,27.241666666666665
5264,7874.24589598256
2,2, 4, 2, 0, 6, 0.00,60.00,Tuesday
6,27.258333333333338
5264,7846.623646764718
2,2, 4, 2, 0, 7, 0.00,60.00,Tuesday
6,27.53333333333333
5264,7854.258472853665
2,2, 4, 2, 0, 8, 0.00,60.00,Tuesday
6,28.05
5264,21274.654589940434
2,2, 4, 2, 0, 9, 0.00,60.00,Tuesday
6,28.883333333333338
5264,88727.43523635397
2,2, 4, 2, 0,10, 0.00,60.00,Tuesday
6,29.825000000000004
5264,117513.84916445833
2,2, 4, 2, 0,11, 0.00,60.00,Tuesday
6,30.55
5264,124669.1081908078
2,2, 4, 2, 0,12, 0.00,60.00,Tuesday
6,30.858333333333336
5264,152566.8027627693
2,2, 4, 2, 0,13, 0.00,60.00,Tuesday
6,30.84166666666667
5264,140519.31759061598
2,2, 4, 2, 0,14, 0.00,60.00,Tuesday
6,30.683333333333335
5264,161277.37790614525
2,2, 4, 2, 0,15, 0.00,60.00,Tuesday
6,30.483333333333336
5264,143270.91854347886
2,2, 4, 2, 0,16, 0.00,60.00,Tuesday
6,30.28333333333333
5264,148811.2546220748
2,2, 4, 2, 0,17, 0.00,60.00,Tuesday
6,30.083333333333333
5264,127038.67748377938
2,2, 4, 2, 0,18, 0.00,60.00,Tuesday
6,29.88333333333334
5264,112001.7420280314
2,2, 4, 2, 0,19, 0.00,60.00,Tuesday
6,29.625
5264,66039.70237025661
2,2, 4, 2, 0,20, 0.00,60.00,Tuesday
6,29.325
5264,35491.23398148313
2,2, 4, 2, 0,21, 0.00,60.00,Tuesday
6,28.96666666666667
5264,8759.166807081801
2,2, 4, 2, 0,22, 0.00,60.00,Tuesday
6,28.566666666666668
5264,8476.618738053805
2,2, 4, 2, 0,23, 0.00,60.00,Tuesday
6,28.166666666666669
5264,8330.650714934478
2,2, 4, 2, 0,24, 0.00,60.00,Tuesday
6,27.766666666666667
5264,8217.454108078653
2,3, 4, 3, 0, 1, 0.00,60.00,Wednesday
6,27.308333333333335
5264,8086.572339159125
2,3, 4, 3, 0, 2, 0.00,60.00,Wednesday
6,26.866666666666665
5264,7997.643237509433
2,3, 4, 3, 0, 3, 0.00,60.00,Wednesday
6,26.46666666666667
5264,7856.739438873757
2,3, 4, 3, 0, 4, 0.00,60.00,Wednesday
6,26.008333333333338
5264,7706.746550029827
2,3, 4, 3, 0, 5, 0.00,60.00,Wednesday
6,25.566666666666668
5264,7548.435954148369
2,3, 4, 3, 0, 6, 0.00,60.00,Wednesday
6,25.75
5264,7493.855027100969
2,3, 4, 3, 0, 7, 0.00,60.00,Wednesday
6,26.525000000000003
5264,7626.61006796639
2,3, 4, 3, 0, 8, 0.00,60.00,Wednesday
6,27.541666666666669
5264,25036.657335514315
2,3, 4, 3, 0, 9, 0.00,60.00,Wednesday
6,28.583333333333333
5264,85882.19139291912
2,3, 4, 3, 0,10, 0.00,60.00,Wednesday
6,29.46666666666667
5264,111519.01347510483
2,3, 4, 3, 0,11, 0.00,60.00,Wednesday
6,30.150000000000003
5264,129776.06026840325
2,3, 4, 3, 0,12, 0.00,60.00,Wednesday
6,30.516666666666667
5264,163847.059102615
2,3, 4, 3, 0,13, 0.00,60.00,Wednesday
6,30.599999999999999
5264,162921.88611057588
2,3, 4, 3, 0,14, 0.00,60.00,Wednesday
6,30.483333333333336
5264,163378.43582365593
2,3, 4, 3, 0,15, 0.00,60.00,Wednesday
6,30.166666666666669
5264,168330.21903838987
2,3, 4, 3, 0,16, 0.00,60.00,Wednesday
6,29.766666666666667
5264,129906.43804463784
2,3, 4, 3, 0,17, 0.00,60.00,Wednesday
6,29.308333333333335
5264,72490.39201901305
2,3, 4, 3, 0,18, 0.00,60.00,Wednesday
6,28.808333333333335
5264,52488.822461745636
2,3, 4, 3, 0,19, 0.00,60.00,Wednesday
6,28.366666666666665
5264,22846.260157107306
2,3, 4, 3, 0,20, 0.00,60.00,Wednesday
6,27.90833333333333
5264,9177.332401481863
2,3, 4, 3, 0,21, 0.00,60.00,Wednesday
6,27.583333333333333
5264,8713.34751623778
2,3, 4, 3, 0,22, 0.00,60.00,Wednesday
6,27.441666666666668
5264,8266.529819535617
2,3, 4, 3, 0,23, 0.00,60.00,Wednesday
6,27.28333333333333
5264,8232.505672357904
2,3, 4, 3, 0,24, 0.00,60.00,Wednesday
6,27.083333333333333
5264,8198.082440398712
2,4, 4, 4, 0, 1, 0.00,60.00,Thursday
6,26.941666666666668
5264,8165.15441855049
2,4, 4, 4, 0, 2, 0.00,60.00,Thursday
6,26.78333333333333
5264,8130.763039173336
2,4, 4, 4, 0, 3, 0.00,60.00,Thursday
6,26.583333333333333
5264,8094.038970043291
2,4, 4, 4, 0, 4, 0.00,60.00,Thursday
6,26.441666666666668
5264,8056.658686707076
2,4, 4, 4, 0, 5, 0.00,60.00,Thursday
6,26.28333333333333
5264,8024.888863735935
2,4, 4, 4, 0, 6, 0.00,60.00,Thursday
6,26.316666666666668
5264,8006.66002188201
2,4, 4, 4, 0, 7, 0.00,60.00,Thursday
6,26.691666666666668
5264,8054.779131624297
2,4, 4, 4, 0, 8, 0.00,60.00,Thursday
6,27.308333333333335
5264,23195.272163435216
2,4, 4, 4, 0, 9, 0.00,60.00,Thursday
6,28.241666666666665
5264,103142.26145088986
2,4, 4, 4, 0,10, 0.00,60.00,Thursday
6,29.28333333333333
5264,133742.98139963268
2,4, 4, 4, 0,11, 0.00,60.00,Thursday
6,30.108333333333336
5264,156217.45738396247
2,4, 4, 4, 0,12, 0.00,60.00,Thursday
6,30.400000000000003
5264,160953.9405014447
2,4, 4, 4, 0,13, 0.00,60.00,Thursday
6,30.28333333333333
5264,165353.72514950505
2,4, 4, 4, 0,14, 0.00,60.00,Thursday
6,30.083333333333333
5264,176476.22478167155
2,4, 4, 4, 0,15, 0.00,60.00,Thursday
6,29.941666666666668
5264,161601.336113135
2,4, 4, 4, 0,16, 0.00,60.00,Thursday
6,29.78333333333333
5264,169741.07833894067
2,4, 4, 4, 0,17, 0.00,60.00,Thursday
6,29.583333333333333
5264,157399.80071666727
2,4, 4, 4, 0,18, 0.00,60.00,Thursday
6,29.325
5264,88049.49018309103
2,4, 4, 4, 0,19, 0.00,60.00,Thursday
6,28.96666666666667
5264,62555.40975771065
2,4, 4, 4, 0,20, 0.00,60.00,Thursday
6,28.566666666666668
5264,44503.404530689884
2,4, 4, 4, 0,21, 0.00,60.00,Thursday
6,28.224999999999999
5264,8285.620710265659
2,4, 4, 4, 0,22, 0.00,60.00,Thursday
6,27.925
5264,8254.291469494974
2,4, 4, 4, 0,23, 0.00,60.00,Thursday
6,27.566666666666668
5264,8215.574813144287
2,4, 4, 4, 0,24, 0.00,60.00,Thursday
6,27.400000000000003
5264,8185.179935414541
2,5, 4, 5, 0, 1, 0.00,60.00,Friday
6,27.458333333333333
5264,8175.671481436955
2,5, 4, 5, 0, 2, 0.00,60.00,Friday
6,27.5
5264,8167.964202940338
2,5, 4, 5, 0, 3, 0.00,60.00,Friday
6,27.208333333333333
5264,8143.005063325784
2,5, 4, 5, 0, 4, 0.00,60.00,Friday
6,26.766666666666667
5264,8091.814542267354
2,5, 4, 5, 0, 5, 0.00,60.00,Friday
6,26.308333333333335
5264,8031.682478190724
2,5, 4, 5, 0, 6, 0.00,60.00,Friday
6,26.333333333333333
5264,8002.807075145128
2,5, 4, 5, 0, 7, 0.00,60.00,Friday
6,26.849999999999999
5264,8035.183267868786
2,5, 4, 5, 0, 8, 0.00,60.00,Friday
6,27.625
5264,29201.226755276617
2,5, 4, 5, 0, 9, 0.00,60.00,Friday
6,28.583333333333333
5264,80920.03670198922
2,5, 4, 5, 0,10, 0.00,60.00,Friday
6,29.46666666666667
5264,141938.97850171766
2,5, 4, 5, 0,11, 0.00,60.00,Friday
6,30.09166666666667
5264,137465.4476640106
2,5, 4, 5, 0,12, 0.00,60.00,Friday
6,30.183333333333335
5264,138196.24704957367
2,5, 4, 5, 0,13, 0.00,60.00,Friday
6,29.866666666666665
5264,148523.55132861497
2,5, 4, 5, 0,14, 0.00,60.00,Friday
6,29.46666666666667
5264,155104.14094995435
2,5, 4, 5, 0,15, 0.00,60.00,Friday
6,29.183333333333335
5264,127920.2602964262
2,5, 4, 5, 0,16, 0.00,60.00,Friday
6,29.041666666666669
5264,117168.21232443305
2,5, 4, 5, 0,17, 0.00,60.00,Friday
6,28.941666666666668
5264,110126.92480352005
2,5, 4, 5, 0,18, 0.00,60.00,Friday
6,28.84166666666667
5264,56703.21903756873
2,5, 4, 5, 0,19, 0.00,60.00,Friday
6,28.625
5264,30271.41985654605
2,5, 4, 5, 0,20, 0.00,60.00,Friday
6,28.38333333333334
5264,19379.832316231714
2,5, 4, 5, 0,21, 0.00,60.00,Friday
6,28.125
5264,13805.101554356997
2,5, 4, 5, 0,22, 0.00,60.00,Friday
6,27.825
5264,8253.25956708715
2,5, 4, 5, 0,23, 0.00,60.00,Friday
6,27.525000000000003
5264,8217.523961758507
2,5, 4, 5, 0,24, 0.00,60.00,Friday
6,27.34166666666667
5264,8189.2526339737915
2,6, 4, 6, 0, 1, 0.00,60.00,Saturday
6,27.3
5264,8172.106564535662
2,6, 4, 6, 0, 2, 0.00,60.00,Saturday
6,27.241666666666665
5264,8160.292160583849
2,6, 4, 6, 0, 3, 0.00,60.00,Saturday
6,27.025000000000003
5264,8136.607162929577
2,6, 4, 6, 0, 4, 0.00,60.00,Saturday
6,26.724999999999999
5264,8082.752062799592
2,6, 4, 6, 0, 5, 0.00,60.00,Saturday
6,26.425
5264,8010.541563945451
2,6, 4, 6, 0, 6, 0.00,60.00,Saturday
6,26.241666666666665
5264,7958.020240111101
2,6, 4, 6, 0, 7, 0.00,60.00,Saturday
6,26.258333333333338
5264,7947.25564213756
2,6, 4, 6, 0, 8, 0.00,60.00,Saturday
6,26.416666666666669
5264,7966.997667110379
2,6, 4, 6, 0, 9, 0.00,60.00,Saturday
6,26.791666666666669
5264,43354.53494765404
2,6, 4, 6, 0,10, 0.00,60.00,Saturday
6,27.349999999999999
5264,62465.75394864727
2,6, 4, 6, 0,11, 0.00,60.00,Saturday
6,27.95
5264,71250.59141401774
2,6, 4, 6, 0,12, 0.00,60.00,Saturday
6,28.491666666666665
5264,62467.73047694698
2,6, 4, 6, 0,13, 0.00,60.00,Saturday
6,28.933333333333335
5264,49474.382216717815
2,6, 4, 6, 0,14, 0.00,60.00,Saturday
6,29.275000000000003
5264,42633.098070367756
2,6, 4, 6, 0,15, 0.00,60.00,Saturday
6,29.516666666666667
5264,44332.40683379853
2,6, 4, 6, 0,16, 0.00,60.00,Saturday
6,29.541666666666669
5264,40606.68794977803
2,6, 4, 6, 0,17, 0.00,60.00,Saturday
6,29.38333333333334
5264,33630.34395229294
2,6, 4, 6, 0,18, 0.00,60.00,Saturday
6,28.950000000000004
5264,31338.520807499648
2,6, 4, 6, 0,19, 0.00,60.00,Saturday
6,28.349999999999999
5264,26465.624883025095
2,6, 4, 6, 0,20, 0.00,60.00,Saturday
6,27.75
5264,9649.662796447676
2,6, 4, 6, 0,21, 0.00,60.00,Saturday
6,27.38333333333334
5264,9337.145968804694
2,6, 4, 6, 0,22, 0.00,60.00,Saturday
6,27.241666666666665
5264,8746.79549540808
2,6, 4, 6, 0,23, 0.00,60.00,Saturday
6,27.083333333333333
5264,8328.133521262385
2,6, 4, 6, 0,24, 0.00,60.00,Saturday
6,26.88333333333334
5264,8177.340535020473
2,7, 4, 7, 0, 1, 0.00,60.00,Sunday
6,26.683333333333338
5264,8128.366461019844
2,7, 4, 7, 0, 2, 0.00,60.00,Sunday
6,26.483333333333336
5264,8099.617863952968
2,7, 4, 7, 0, 3, 0.00,60.00,Sunday
6,26.400000000000003
5264,8081.590497168959
2,7, 4, 7, 0, 4, 0.00,60.00,Sunday
6,26.400000000000003
5264,8070.5393563538955
2,7, 4, 7, 0, 5, 0.00,60.00,Sunday
6,26.400000000000003
5264,8055.240518488055
2,7, 4, 7, 0, 6, 0.00,60.00,Sunday
6,26.925
5264,8077.288042614914
2,7, 4, 7, 0, 7, 0.00,60.00,Sunday
6,27.883333333333338
5264,8160.47864288771
2,7, 4, 7, 0, 8, 0.00,60.00,Sunday
6,28.825
5264,8265.449368175907
2,7, 4, 7, 0, 9, 0.00,60.00,Sunday
6,29.55
5264,8352.096093382574
2,7, 4, 7, 0,10, 0.00,60.00,Sunday
6,30.09166666666667
5264,8400.372388581238
2,7, 4, 7, 0,11, 0.00,60.00,Sunday
6,30.474999999999999
5264,8429.668956419182
2,7, 4, 7, 0,12, 0.00,60.00,Sunday
6,30.775000000000003
5264,8443.974216312317
2,7, 4, 7, 0,13, 0.00,60.00,Sunday
6,30.958333333333333
5264,8456.292740650706
2,7, 4, 7, 0,14, 0.00,60.00,Sunday
6,31.058333333333338
5264,8475.290136170932
2,7, 4, 7, 0,15, 0.00,60.00,Sunday
6,31.099999999999999
5264,8503.731333381042
2,7, 4, 7, 0,16, 0.00,60.00,Sunday
6,30.925
5264,8532.780990258163
2,7, 4, 7, 0,17, 0.00,60.00,Sunday
6,30.625
5264,8550.734931097026
2,7, 4, 7, 0,18, 0.00,60.00,Sunday
6,30.208333333333333
5264,8542.946985873825
2,7, 4, 7, 0,19, 0.00,60.00,Sunday
6,29.766666666666667
5264,8513.732709433274
2,7, 4, 7, 0,20, 0.00,60.00,Sunday
6,29.366666666666665
5264,8477.494190669326
2,7, 4, 7, 0,21, 0.00,60.00,Sunday
6,29.025000000000003
5264,8449.17566054953
2,7, 4, 7, 0,22, 0.00,60.00,Sunday
6,28.724999999999999
5264,8402.537549669383
2,7, 4, 7, 0,23, 0.00,60.00,Sunday
6,28.425000000000009
5264,8348.231910121589
2,7, 4, 7, 0,24, 0.00,60.00,Sunday
6,28.183333333333338
5264,8299.169012233719
2,8, 4, 8, 0, 1, 0.00,60.00,Monday
6,28.041666666666669
5264,7910.667489951525
2,8, 4, 8, 0, 2, 0.00,60.00,Monday
6,27.88333333333334
5264,7922.903279069665
2,8, 4, 8, 0, 3, 0.00,60.00,Monday
6,27.566666666666668
5264,7824.32464966712
2,8, 4, 8, 0, 4, 0.00,60.00,Monday
6,27.166666666666669
5264,7702.821638856546
2,8, 4, 8, 0, 5, 0.00,60.00,Monday
6,26.766666666666667
5264,7572.049648291118
2,8, 4, 8, 0, 6, 0.00,60.00,Monday
6,26.89166666666667
5264,7553.075813466302
2,8, 4, 8, 0, 7, 0.00,60.00,Monday
6,27.508333333333338
5264,7662.129687015996
2,8, 4, 8, 0, 8, 0.00,60.00,Monday
6,28.325000000000004
5264,30923.4574904196
2,8, 4, 8, 0, 9, 0.00,60.00,Monday
6,29.224999999999999
5264,84124.58241724542
2,8, 4, 8, 0,10, 0.00,60.00,Monday
6,30.066666666666668
5264,125114.48952258144
2,8, 4, 8, 0,11, 0.00,60.00,Monday
6,30.691666666666668
5264,118069.60582190943
2,8, 4, 8, 0,12, 0.00,60.00,Monday
6,31.016666666666667
5264,155944.00647550298
2,8, 4, 8, 0,13, 0.00,60.00,Monday
6,31.099999999999999
5264,153889.4416733702
2,8, 4, 8, 0,14, 0.00,60.00,Monday
6,31.099999999999999
5264,173726.20399500314
2,8, 4, 8, 0,15, 0.00,60.00,Monday
6,31.099999999999999
5264,183359.91778016828
2,8, 4, 8, 0,16, 0.00,60.00,Monday
6,31.041666666666669
5264,167503.05617632444
2,8, 4, 8, 0,17, 0.00,60.00,Monday
6,30.766666666666667
5264,148097.013588637
2,8, 4, 8, 0,18, 0.00,60.00,Monday
6,30.191666666666668
5264,55453.11387386463
2,8, 4, 8, 0,19, 0.00,60.00,Monday
6,29.55
5264,27136.768370528036
2,8, 4, 8, 0,20, 0.00,60.00,Monday
6,28.950000000000004
5264,11276.880175257129
2,8, 4, 8, 0,21, 0.00,60.00,Monday
6,28.641666666666667
5264,8736.610570013092
2,8, 4, 8, 0,22, 0.00,60.00,Monday
6,28.541666666666669
5264,8313.219948825214
2,8, 4, 8, 0,23, 0.00,60.00,Monday
6,28.441666666666668
5264,8313.959777909586
2,8, 4, 8, 0,24, 0.00,60.00,Monday
6,28.224999999999999
5264,8300.772922165692
2,9, 4, 9, 0, 1, 0.00,60.00,Holiday
6,27.983333333333336
5264,8274.679577360097
2,9, 4, 9, 0, 2, 0.00,60.00,Holiday
6,27.724999999999999
5264,8248.280410673875
2,9, 4, 9, 0, 3, 0.00,60.00,Holiday
6,27.541666666666669
5264,8222.55942424495
2,9, 4, 9, 0, 4, 0.00,60.00,Holiday
6,27.38333333333334
5264,8198.111876163404
2,9, 4, 9, 0, 5, 0.00,60.00,Holiday
6,27.241666666666665
5264,8171.432533292868
2,9, 4, 9, 0, 6, 0.00,60.00,Holiday
6,27.608333333333336
5264,8174.434608517855
2,9, 4, 9, 0, 7, 0.00,60.00,Holiday
6,28.366666666666665
5264,8210.124536254149
2,9, 4, 9, 0, 8, 0.00,60.00,Holiday
6,29.108333333333336
5264,8263.830873800422
2,9, 4, 9, 0, 9, 0.00,60.00,Holiday
6,29.166666666666669
5264,8297.18296478435
2,9, 4, 9, 0,10, 0.00,60.00,Holiday
6,29.641666666666667
5264,8384.510000791264
2,9, 4, 9, 0,11, 0.00,60.00,Holiday
6,30.683333333333335
5264,8481.969029816735
2,9, 4, 9, 0,12, 0.00,60.00,Holiday
6,31.15833333333333
5264,8519.05572359497
2,9, 4, 9, 0,13, 0.00,60.00,Holiday
6,31.199999999999993
5264,8528.645742202463
2,9, 4, 9, 0,14, 0.00,60.00,Holiday
6,31.083333333333333
5264,8521.816122247235
2,9, 4, 9, 0,15, 0.00,60.00,Holiday
6,30.88333333333334
5264,8510.328710060561
2,9, 4, 9, 0,16, 0.00,60.00,Holiday
6,30.625
5264,8494.889124453251
2,9, 4, 9, 0,17, 0.00,60.00,Holiday
6,30.325
5264,8469.671113336182
2,9, 4, 9, 0,18, 0.00,60.00,Holiday
6,30.025000000000003
5264,8438.332846728877
2,9, 4, 9, 0,19, 0.00,60.00,Holiday
6,29.666666666666669
5264,8399.596355744665
2,9, 4, 9, 0,20, 0.00,60.00,Holiday
6,29.325
5264,8360.52927504735
2,9, 4, 9, 0,21, 0.00,60.00,Holiday
6,29.025000000000003
5264,8328.643008359088
2,9, 4, 9, 0,22, 0.00,60.00,Holiday
6,28.666666666666669
5264,8295.091618101866
2,9, 4, 9, 0,23, 0.00,60.00,Holiday
6,28.325
5264,8264.236935093717
2,9, 4, 9, 0,24, 0.00,60.00,Holiday
6,28.083333333333333
5264,8236.302398471887
2,10, 4,10, 0, 1, 0.00,60.00,Wednesday
6,27.825
5264,7746.011676218244
2,10, 4,10, 0, 2, 0.00,60.00,Wednesday
6,27.583333333333333
5264,7790.513151325456
2,10, 4,10, 0, 3, 0.00,60.00,Wednesday
6,27.441666666666668
5264,7749.641834154732
2,10, 4,10, 0, 4, 0.00,60.00,Wednesday
6,27.400000000000003
5264,7713.925344227337
2,10, 4,10, 0, 5, 0.00,60.00,Wednesday
6,27.34166666666667
5264,7677.345934278758
2,10, 4,10, 0, 6, 0.00,60.00,Wednesday
6,27.53333333333333
5264,7690.846371424359
2,10, 4,10, 0, 7, 0.00,60.00,Wednesday
6,28.05
5264,7812.030066652899
2,10, 4,10, 0, 8, 0.00,60.00,Wednesday
6,28.708333333333333
5264,25908.113420208465
2,10, 4,10, 0, 9, 0.00,60.00,Wednesday
6,29.349999999999999
5264,102193.41540296773
2,10, 4,10, 0,10, 0.00,60.00,Wednesday
6,30.008333333333338
5264,125968.21123545629
2,10, 4,10, 0,11, 0.00,60.00,Wednesday
6,30.59166666666667
5264,142313.19961157684
2,10, 4,10, 0,12, 0.00,60.00,Wednesday
6,31.03333333333333
5264,172086.67497126203
2,10, 4,10, 0,13, 0.00,60.00,Wednesday
6,31.316666666666668
5264,170702.03909838995
2,10, 4,10, 0,14, 0.00,60.00,Wednesday
6,31.28333333333333
5264,168003.19750823244
2,10, 4,10, 0,15, 0.00,60.00,Wednesday
6,30.791666666666669
5264,173162.49746406309
2,10, 4,10, 0,16, 0.00,60.00,Wednesday
6,30.03333333333333
5264,138099.03623782705
2,10, 4,10, 0,17, 0.00,60.00,Wednesday
6,29.233333333333336
5264,79456.11396021328
2,10, 4,10, 0,18, 0.00,60.00,Wednesday
6,28.608333333333336
5264,52481.86928271971
2,10, 4,10, 0,19, 0.00,60.00,Wednesday
6,28.28333333333333
5264,22908.881865262538
2,10, 4,10, 0,20, 0.00,60.00,Wednesday
6,28.025000000000003
5264,9153.33230304638
2,10, 4,10, 0,21, 0.00,60.00,Wednesday
6,27.900000000000003
5264,8693.02140498732
2,10, 4,10, 0,22, 0.00,60.00,Wednesday
6,27.900000000000003
5264,8262.791951097177
2,10, 4,10, 0,23, 0.00,60.00,Wednesday
6,27.900000000000003
5264,8253.307708755392
2,10, 4,10, 0,24, 0.00,60.00,Wednesday
6,27.84166666666667
5264,8241.646724911374
2,11, 4,11, 0, 1, 0.00,60.00,Thursday
6,27.8
5264,8227.541463663423
2,11, 4,11, 0, 2, 0.00,60.00,Thursday
6,27.8
5264,8218.851724974696
2,11, 4,11, 0, 3, 0.00,60.00,Thursday
6,27.508333333333338
5264,8192.872234183224
2,11, 4,11, 0, 4, 0.00,60.00,Thursday
6,27.066666666666668
5264,8142.598731988796
2,11, 4,11, 0, 5, 0.00,60.00,Thursday
6,26.608333333333336
5264,8083.804061294927
2,11, 4,11, 0, 6, 0.00,60.00,Thursday
6,26.633333333333338
5264,8059.1401068509
2,11, 4,11, 0, 7, 0.00,60.00,Thursday
6,27.09166666666667
5264,8104.996217286137
2,11, 4,11, 0, 8, 0.00,60.00,Thursday
6,27.650000000000003
5264,23342.027641121193
2,11, 4,11, 0, 9, 0.00,60.00,Thursday
6,28.191666666666668
5264,107503.51954471386
2,11, 4,11, 0,10, 0.00,60.00,Thursday
6,28.691666666666668
5264,136481.0077655605
2,11, 4,11, 0,11, 0.00,60.00,Thursday
6,29.25
5264,156419.69466973979
2,11, 4,11, 0,12, 0.00,60.00,Thursday
6,29.849999999999999
5264,161754.81300071543
2,11, 4,11, 0,13, 0.00,60.00,Thursday
6,30.275000000000003
5264,166803.7489644172
2,11, 4,11, 0,14, 0.00,60.00,Thursday
6,30.516666666666667
5264,179133.4370378214
2,11, 4,11, 0,15, 0.00,60.00,Thursday
6,30.483333333333336
5264,168029.7817011739
2,11, 4,11, 0,16, 0.00,60.00,Thursday
6,30.224999999999999
5264,174901.181319477
2,11, 4,11, 0,17, 0.00,60.00,Thursday
6,29.925000000000009
5264,162196.8882834049
2,11, 4,11, 0,18, 0.00,60.00,Thursday
6,29.683333333333338
5264,88788.8207860471
2,11, 4,11, 0,19, 0.00,60.00,Thursday
6,29.366666666666665
5264,63275.195632290815
2,11, 4,11, 0,20, 0.00,60.00,Thursday
6,29.025000000000003
5264,45028.89054052255
2,11, 4,11, 0,21, 0.00,60.00,Thursday
6,28.608333333333336
5264,8339.953375859202
2,11, 4,11, 0,22, 0.00,60.00,Thursday
6,28.10833333333333
5264,8292.113601785495
2,11, 4,11, 0,23, 0.00,60.00,Thursday
6,27.60833333333333
5264,8233.396054960454
2,11, 4,11, 0,24, 0.00,60.00,Thursday
6,27.166666666666669
5264,8177.0834239504875
2,12, 4,12, 0, 1, 0.00,60.00,Friday
6,26.766666666666667
5264,8125.288625577741
2,12, 4,12, 0, 2, 0.00,60.00,Friday
6,26.366666666666665
5264,8068.744873179622
2,12, 4,12, 0, 3, 0.00,60.00,Friday
6,26.141666666666667
5264,8021.59913844723
2,12, 4,12, 0, 4, 0.00,60.00,Friday
6,26.099999999999999
5264,7998.552645732746
2,12, 4,12, 0, 5, 0.00,60.00,Friday
6,26.041666666666669
5264,7983.442140241029
2,12, 4,12, 0, 6, 0.00,60.00,Friday
6,26.75833333333334
5264,8017.247614515436
2,12, 4,12, 0, 7, 0.00,60.00,Friday
6,28.175
5264,8142.140000642175
2,12, 4,12, 0, 8, 0.00,60.00,Friday
6,29.558333333333335
5264,29851.407796559546
2,12, 4,12, 0, 9, 0.00,60.00,Friday
6,30.45
5264,92540.59292379477
2,12, 4,12, 0,10, 0.00,60.00,Friday
6,30.875
5264,147837.22132901394
2,12, 4,12, 0,11, 0.00,60.00,Friday
6,31.058333333333338
5264,143565.65463138218
2,12, 4,12, 0,12, 0.00,60.00,Friday
6,31.15833333333333
5264,144811.05669895203
2,12, 4,12, 0,13, 0.00,60.00,Friday
6,31.258333333333338
5264,154264.80000382974
2,12, 4,12, 0,14, 0.00,60.00,Friday
6,31.241666666666665
5264,162069.9777399651
2,12, 4,12, 0,15, 0.00,60.00,Friday
6,31.083333333333333
5264,140039.23662766617
2,12, 4,12, 0,16, 0.00,60.00,Friday
6,30.766666666666667
5264,127244.9563455436
2,12, 4,12, 0,17, 0.00,60.00,Friday
6,30.308333333333335
5264,118335.52556187519
2,12, 4,12, 0,18, 0.00,60.00,Friday
6,29.75
5264,57079.72481756243
2,12, 4,12, 0,19, 0.00,60.00,Friday
6,29.266666666666667
5264,30428.79183392134
2,12, 4,12, 0,20, 0.00,60.00,Friday
6,28.808333333333335
5264,19419.257851150152
2,12, 4,12, 0,21, 0.00,60.00,Friday
6,28.541666666666669
5264,13832.689030345
2,12, 4,12, 0,22, 0.00,60.00,Friday
6,28.441666666666668
5264,8295.021427100868
2,12, 4,12, 0,23, 0.00,60.00,Friday
6,28.34166666666667
5264,8284.790513408052
2,12, 4,12, 0,24, 0.00,60.00,Friday
6,27.89166666666667
5264,8251.240804167965
2,13, 4,13, 0, 1, 0.00,60.00,Saturday
6,27.133333333333338
5264,8170.808652823779
2,13, 4,13, 0, 2, 0.00,60.00,Saturday
6,26.39166666666667
5264,8073.936736852706
2,13, 4,13, 0, 3, 0.00,60.00,Saturday
6,25.983333333333336
5264,8003.011711818862
2,13, 4,13, 0, 4, 0.00,60.00,Saturday
6,25.78333333333333
5264,7963.048368639244
2,13, 4,13, 0, 5, 0.00,60.00,Saturday
6,25.583333333333333
5264,7935.493762099311
2,13, 4,13, 0, 6, 0.00,60.00,Saturday
6,26.2
5264,7956.7217098994
2,13, 4,13, 0, 7, 0.00,60.00,Saturday
6,27.516666666666667
5264,8056.65487063232
2,13, 4,13, 0, 8, 0.00,60.00,Saturday
6,28.858333333333336
5264,8185.584287641605
2,13, 4,13, 0, 9, 0.00,60.00,Saturday
6,29.808333333333335
5264,58264.548746494496
2,13, 4,13, 0,10, 0.00,60.00,Saturday
6,30.333333333333333
5264,78630.05618566621
2,13, 4,13, 0,11, 0.00,60.00,Saturday
6,30.675
5264,86528.97127487332
2,13, 4,13, 0,12, 0.00,60.00,Saturday
6,30.916666666666669
5264,76397.51661830367
2,13, 4,13, 0,13, 0.00,60.00,Saturday
6,31.0
5264,58418.525666485104
2,13, 4,13, 0,14, 0.00,60.00,Saturday
6,31.0
5264,51433.53006602519
2,13, 4,13, 0,15, 0.00,60.00,Saturday
6,30.941666666666668
5264,52194.938487755455
2,13, 4,13, 0,16, 0.00,60.00,Saturday
6,30.724999999999999
5264,47216.735554400075
2,13, 4,13, 0,17, 0.00,60.00,Saturday
6,30.308333333333335
5264,38840.59089501291
2,13, 4,13, 0,18, 0.00,60.00,Saturday
6,29.633333333333338
5264,34195.35913145419
2,13, 4,13, 0,19, 0.00,60.00,Saturday
6,28.950000000000004
5264,27713.142616578447
2,13, 4,13, 0,20, 0.00,60.00,Saturday
6,28.291666666666669
5264,10979.71463840164
2,13, 4,13, 0,21, 0.00,60.00,Saturday
6,28.0
5264,10787.543854271486
2,13, 4,13, 0,22, 0.00,60.00,Saturday
6,27.941666666666668
5264,8722.002982077995
2,13, 4,13, 0,23, 0.00,60.00,Saturday
6,27.900000000000003
5264,8414.641505309706
2,13, 4,13, 0,24, 0.00,60.00,Saturday
6,27.78333333333333
5264,8321.371243806203
2,14, 4,14, 0, 1, 0.00,60.00,Sunday
6,27.525000000000003
5264,8281.527051697189
2,14, 4,14, 0, 2, 0.00,60.00,Sunday
6,27.28333333333333
5264,8255.847831140569
2,14, 4,14, 0, 3, 0.00,60.00,Sunday
6,27.083333333333333
5264,8231.637819042966
2,14, 4,14, 0, 4, 0.00,60.00,Sunday
6,26.825
5264,8194.358401071258
2,14, 4,14, 0, 5, 0.00,60.00,Sunday
6,26.583333333333333
5264,8146.11490783148
2,14, 4,14, 0, 6, 0.00,60.00,Sunday
6,26.96666666666667
5264,8139.22512598797
2,14, 4,14, 0, 7, 0.00,60.00,Sunday
6,27.825
5264,8181.422608796248
2,14, 4,14, 0, 8, 0.00,60.00,Sunday
6,28.724999999999999
5264,8248.490950911813
2,14, 4,14, 0, 9, 0.00,60.00,Sunday
6,29.45
5264,8314.176152249594
2,14, 4,14, 0,10, 0.00,60.00,Sunday
6,30.05
5264,8384.001153436211
2,14, 4,14, 0,11, 0.00,60.00,Sunday
6,30.59166666666667
5264,8454.035012770097
2,14, 4,14, 0,12, 0.00,60.00,Sunday
6,31.208333333333333
5264,8521.846715320933
2,14, 4,14, 0,13, 0.00,60.00,Sunday
6,31.733333333333336
5264,8576.173102899133
2,14, 4,14, 0,14, 0.00,60.00,Sunday
6,31.958333333333333
5264,8611.530342369804
2,14, 4,14, 0,15, 0.00,60.00,Sunday
6,31.708333333333333
5264,8605.976568266184
2,14, 4,14, 0,16, 0.00,60.00,Sunday
6,31.09166666666667
5264,8558.808902717052
2,14, 4,14, 0,17, 0.00,60.00,Sunday
6,30.333333333333333
5264,8502.765720977148
2,14, 4,14, 0,18, 0.00,60.00,Sunday
6,29.474999999999999
5264,8424.282674922579
2,14, 4,14, 0,19, 0.00,60.00,Sunday
6,28.75
5264,8356.777274248656
2,14, 4,14, 0,20, 0.00,60.00,Sunday
6,28.09166666666667
5264,8302.685114318474
2,14, 4,14, 0,21, 0.00,60.00,Sunday
6,27.8
5264,8266.901393822796
2,14, 4,14, 0,22, 0.00,60.00,Sunday
6,27.741666666666665
5264,8254.00163834866
2,14, 4,14, 0,23, 0.00,60.00,Sunday
6,27.7
5264,8247.789934899325
2,14, 4,14, 0,24, 0.00,60.00,Sunday
6,27.641666666666667
5264,8235.423805316928
2,15, 4,15, 0, 1, 0.00,60.00,Monday
6,27.599999999999999
5264,7853.575687547075
2,15, 4,15, 0, 2, 0.00,60.00,Monday
6,27.541666666666669
5264,7880.680002322842
2,15, 4,15, 0, 3, 0.00,60.00,Monday
6,27.325
5264,7791.261191097681
2,15, 4,15, 0, 4, 0.00,60.00,Monday
6,26.96666666666667
5264,7683.158113119767
2,15, 4,15, 0, 5, 0.00,60.00,Monday
6,26.625
5264,7601.745043915897
2,15, 4,15, 0, 6, 0.00,60.00,Monday
6,26.675
5264,7619.308315354431
2,15, 4,15, 0, 7, 0.00,60.00,Monday
6,27.09166666666667
5264,7659.418346650785
2,15, 4,15, 0, 8, 0.00,60.00,Monday
6,27.708333333333333
5264,30716.940007013633
2,15, 4,15, 0, 9, 0.00,60.00,Monday
6,28.525000000000003
5264,82816.93462533053
2,15, 4,15, 0,10, 0.00,60.00,Monday
6,29.366666666666665
5264,122646.85639430055
2,15, 4,15, 0,11, 0.00,60.00,Monday
6,30.05
5264,116238.32545482104
2,15, 4,15, 0,12, 0.00,60.00,Monday
6,30.3
5264,153109.60457837178
2,15, 4,15, 0,13, 0.00,60.00,Monday
6,30.241666666666665
5264,150424.65234563463
2,15, 4,15, 0,14, 0.00,60.00,Monday
6,30.083333333333333
5264,171047.55372340684
2,15, 4,15, 0,15, 0.00,60.00,Monday
6,30.058333333333338
5264,180645.9873464658
2,15, 4,15, 0,16, 0.00,60.00,Monday
6,30.041666666666669
5264,164729.95564143072
2,15, 4,15, 0,17, 0.00,60.00,Monday
6,29.941666666666668
5264,145994.70484113424
2,15, 4,15, 0,18, 0.00,60.00,Monday
6,29.60833333333333
5264,55055.71600413796
2,15, 4,15, 0,19, 0.00,60.00,Monday
6,29.10833333333333
5264,26973.770587719006
2,15, 4,15, 0,20, 0.00,60.00,Monday
6,28.608333333333336
5264,11238.6617648396
2,15, 4,15, 0,21, 0.00,60.00,Monday
6,28.28333333333333
5264,8707.615413472111
2,15, 4,15, 0,22, 0.00,60.00,Monday
6,28.141666666666667
5264,8285.400108295204
2,15, 4,15, 0,23, 0.00,60.00,Monday
6,27.983333333333336
5264,8285.86322767824
2,15, 4,15, 0,24, 0.00,60.00,Monday
6,27.55
5264,8264.725514324587
2,16, 4,16, 0, 1, 0.00,60.00,Tuesday
6,27.008333333333338
5264,7864.864990606319
2,16, 4,16, 0, 2, 0.00,60.00,Tuesday
6,26.45
5264,7727.284536176855
2,16, 4,16, 0, 3, 0.00,60.00,Tuesday
6,26.141666666666667
5264,7597.7368499855875
2,16, 4,16, 0, 4, 0.00,60.00,Tuesday
6,26.099999999999999
5264,7553.1942533734355
2,16, 4,16, 0, 5, 0.00,60.00,Tuesday
6,26.041666666666669
5264,7506.062583781039
2,16, 4,16, 0, 6, 0.00,60.00,Tuesday
6,26.525000000000003
5264,7549.761343793503
2,16, 4,16, 0, 7, 0.00,60.00,Tuesday
6,27.541666666666669
5264,7712.58554172776
2,16, 4,16, 0, 8, 0.00,60.00,Tuesday
6,28.583333333333333
5264,21308.497224986466
2,16, 4,16, 0, 9, 0.00,60.00,Tuesday
6,29.40833333333333
5264,92104.28105736077
2,16, 4,16, 0,10, 0.00,60.00,Tuesday
6,29.991666666666665
5264,119583.97647439118
2,16, 4,16, 0,11, 0.00,60.00,Tuesday
6,30.433333333333335
5264,125594.26347438096
2,16, 4,16, 0,12, 0.00,60.00,Tuesday
6,30.833333333333333
5264,153617.1912060652
2,16, 4,16, 0,13, 0.00,60.00,Tuesday
6,31.175
5264,143109.23537049147