Program Version,EnergyPlus, Version 8.7.0-78a111df4a, YMD=2019.11.22 12:35
1,5,Environment Title[],Latitude[deg],Longitude[deg],Time Zone[],Elevation[m]
2,6,Day of Simulation[],Month[],Day of Month[],DST Indicator[1=yes 0=no],Hour[],StartMinute[],EndMinute[],DayType
3,3,Cumulative Day of Simulation[],Month[],Day of Month[],DST Indicator[1=yes 0=no],DayType  ! When Daily Report Variables Requested
4,2,Cumulative Days of Simulation[],Month[]  ! When Monthly Report Variables Requested
5,1,Cumulative Days of Simulation[] ! When Run Period Report Variables Requested
2232,1,AF305DAYLIGHTCONTROL,Daylighting Reference Point 1 Illuminance [lux] !Hourly
2233,1,AF305DAYLIGHTCONTROL,Daylighting Reference Point 2 Illuminance [lux] !Hourly
End of Data Dictionary
1,RUNPERIOD,  10.30, 123.97,   8.00,  24.00
2,1,10, 1, 0, 1, 0.00,60.00,Tuesday
2232,0.0
2233,0.0
2,1,10, 1, 0, 2, 0.00,60.00,Tuesday
2232,0.0
2233,0.0
2,1,10, 1, 0, 3, 0.00,60.00,Tuesday
2232,0.0
2233,0.0
2,1,10, 1, 0, 4, 0.00,60.00,Tuesday
2232,0.0
2233,0.0
2,1,10, 1, 0, 5, 0.00,60.00,Tuesday
2232,0.0
2233,0.0
2,1,10, 1, 0, 6, 0.00,60.00,Tuesday
2232,9.832771766744415
2233,5.042545485008744
2,1,10, 1, 0, 7, 0.00,60.00,Tuesday
2232,51.33921926751268
2233,29.968327810450277
2,1,10, 1, 0, 8, 0.00,60.00,Tuesday
2232,82.36137872129099
2233,49.02243413164438
2,1,10, 1, 0, 9, 0.00,60.00,Tuesday
2232,95.74392648329727
2233,58.46039244440896
2,1,10, 1, 0,10, 0.00,60.00,Tuesday
2232,91.2340452878537
2233,57.49125705751943
2,1,10, 1, 0,11, 0.00,60.00,Tuesday
2232,76.98482963229002
2233,50.31451752393701
2,1,10, 1, 0,12, 0.00,60.00,Tuesday
2232,63.2809673639527
2233,42.29662081178092
2,1,10, 1, 0,13, 0.00,60.00,Tuesday
2232,65.43473868153359
2233,43.02970341389629
2,1,10, 1, 0,14, 0.00,60.00,Tuesday
2232,65.03559602783847
2233,41.59072049154836
2,1,10, 1, 0,15, 0.00,60.00,Tuesday
2232,52.297075549602549
2233,32.74183840847565
2,1,10, 1, 0,16, 0.00,60.00,Tuesday
2232,34.33544311017839
2233,21.41250896521844
2,1,10, 1, 0,17, 0.00,60.00,Tuesday
2232,13.676154005319653
2233,8.662560779654328
2,1,10, 1, 0,18, 0.00,60.00,Tuesday
2232,1.5517952301029253
2233,0.9832862356260742
2,1,10, 1, 0,19, 0.00,60.00,Tuesday
2232,0.0
2233,0.0
2,1,10, 1, 0,20, 0.00,60.00,Tuesday
2232,0.0
2233,0.0
2,1,10, 1, 0,21, 0.00,60.00,Tuesday
2232,0.0
2233,0.0
2,1,10, 1, 0,22, 0.00,60.00,Tuesday
2232,0.0
2233,0.0
2,1,10, 1, 0,23, 0.00,60.00,Tuesday
2232,0.0
2233,0.0
2,1,10, 1, 0,24, 0.00,60.00,Tuesday
2232,0.0
2233,0.0
2,2,10, 2, 0, 1, 0.00,60.00,Wednesday
2232,0.0
2233,0.0
2,2,10, 2, 0, 2, 0.00,60.00,Wednesday
2232,0.0
2233,0.0
2,2,10, 2, 0, 3, 0.00,60.00,Wednesday
2232,0.0
2233,0.0
2,2,10, 2, 0, 4, 0.00,60.00,Wednesday
2232,0.0
2233,0.0
2,2,10, 2, 0, 5, 0.00,60.00,Wednesday
2232,0.0
2233,0.0
2,2,10, 2, 0, 6, 0.00,60.00,Wednesday
2232,10.081684474958556
2233,5.141208616145178
2,2,10, 2, 0, 7, 0.00,60.00,Wednesday
2232,53.186287631802
2233,30.74421463263518
2,2,10, 2, 0, 8, 0.00,60.00,Wednesday
2232,86.43260528366767
2233,50.87049308366165
2,2,10, 2, 0, 9, 0.00,60.00,Wednesday
2232,98.83178182206136
2233,60.15288242585666
2,2,10, 2, 0,10, 0.00,60.00,Wednesday
2232,93.03989466665166
2233,58.54800154455484
2,2,10, 2, 0,11, 0.00,60.00,Wednesday
2232,74.7005897560969
2233,48.82444861969825
2,2,10, 2, 0,12, 0.00,60.00,Wednesday
2232,65.52442344347678
2233,43.70213491127554
2,2,10, 2, 0,13, 0.00,60.00,Wednesday
2232,65.4947324250544
2233,42.98678981143704
2,2,10, 2, 0,14, 0.00,60.00,Wednesday
2232,57.26781714039888
2233,36.66835067994282
2,2,10, 2, 0,15, 0.00,60.00,Wednesday
2232,48.781270539660919
2233,30.601214220205916
2,2,10, 2, 0,16, 0.00,60.00,Wednesday
2232,34.46367046035998
2233,21.484541233444124
2,2,10, 2, 0,17, 0.00,60.00,Wednesday
2232,17.266832188597577
2233,10.883572599739042
2,2,10, 2, 0,18, 0.00,60.00,Wednesday
2232,1.9572432875731865
2233,1.228268232585541
2,2,10, 2, 0,19, 0.00,60.00,Wednesday
2232,0.0
2233,0.0
2,2,10, 2, 0,20, 0.00,60.00,Wednesday
2232,0.0
2233,0.0
2,2,10, 2, 0,21, 0.00,60.00,Wednesday
2232,0.0
2233,0.0
2,2,10, 2, 0,22, 0.00,60.00,Wednesday
2232,0.0
2233,0.0
2,2,10, 2, 0,23, 0.00,60.00,Wednesday
2232,0.0
2233,0.0
2,2,10, 2, 0,24, 0.00,60.00,Wednesday
2232,0.0
2233,0.0
2,3,10, 3, 0, 1, 0.00,60.00,Thursday
2232,0.0
2233,0.0
2,3,10, 3, 0, 2, 0.00,60.00,Thursday
2232,0.0
2233,0.0
2,3,10, 3, 0, 3, 0.00,60.00,Thursday
2232,0.0
2233,0.0
2,3,10, 3, 0, 4, 0.00,60.00,Thursday
2232,0.0
2233,0.0
2,3,10, 3, 0, 5, 0.00,60.00,Thursday
2232,0.0
2233,0.0
2,3,10, 3, 0, 6, 0.00,60.00,Thursday
2232,4.109575212073634
2233,2.58410600806129
2,3,10, 3, 0, 7, 0.00,60.00,Thursday
2232,25.441185271681375
2233,16.098206134941674
2,3,10, 3, 0, 8, 0.00,60.00,Thursday
2232,52.93499763148437
2233,32.82345325953922
2,3,10, 3, 0, 9, 0.00,60.00,Thursday
2232,74.79941995820323
2233,46.70245279466648
2,3,10, 3, 0,10, 0.00,60.00,Thursday
2232,78.11459786292027
2233,49.90164581456315
2,3,10, 3, 0,11, 0.00,60.00,Thursday
2232,72.56438561683616
2233,47.63654452363707
2,3,10, 3, 0,12, 0.00,60.00,Thursday
2232,65.95152463696896
2233,43.72846611906576
2,3,10, 3, 0,13, 0.00,60.00,Thursday
2232,59.15252126481543
2233,38.78902281768166
2,3,10, 3, 0,14, 0.00,60.00,Thursday
2232,53.018072846471088
2233,34.043081349440409
2,3,10, 3, 0,15, 0.00,60.00,Thursday
2232,50.524747732478
2233,31.666582855050576
2,3,10, 3, 0,16, 0.00,60.00,Thursday
2232,40.95891830715714
2233,25.46166830824029
2,3,10, 3, 0,17, 0.00,60.00,Thursday
2232,21.730287605454924
2233,13.432844769407945
2,3,10, 3, 0,18, 0.00,60.00,Thursday
2232,2.627042996850306
2233,1.5948327238523746
2,3,10, 3, 0,19, 0.00,60.00,Thursday
2232,0.0
2233,0.0
2,3,10, 3, 0,20, 0.00,60.00,Thursday
2232,0.0
2233,0.0
2,3,10, 3, 0,21, 0.00,60.00,Thursday
2232,0.0
2233,0.0
2,3,10, 3, 0,22, 0.00,60.00,Thursday
2232,0.0
2233,0.0
2,3,10, 3, 0,23, 0.00,60.00,Thursday
2232,0.0
2233,0.0
2,3,10, 3, 0,24, 0.00,60.00,Thursday
2232,0.0
2233,0.0
2,4,10, 4, 0, 1, 0.00,60.00,Friday
2232,0.0
2233,0.0
2,4,10, 4, 0, 2, 0.00,60.00,Friday
2232,0.0
2233,0.0
2,4,10, 4, 0, 3, 0.00,60.00,Friday
2232,0.0
2233,0.0
2,4,10, 4, 0, 4, 0.00,60.00,Friday
2232,0.0
2233,0.0
2,4,10, 4, 0, 5, 0.00,60.00,Friday
2232,0.0
2233,0.0
2,4,10, 4, 0, 6, 0.00,60.00,Friday
2232,5.069563686852281
2233,3.1356523285850765
2,4,10, 4, 0, 7, 0.00,60.00,Friday
2232,31.445337214113523
2233,19.82164231506935
2,4,10, 4, 0, 8, 0.00,60.00,Friday
2232,62.350124995601827
2233,38.45880285139629
2,4,10, 4, 0, 9, 0.00,60.00,Friday
2232,77.11201054347616
2233,48.11096208933244
2,4,10, 4, 0,10, 0.00,60.00,Friday
2232,78.00232833760383
2233,49.84466652777328
2,4,10, 4, 0,11, 0.00,60.00,Friday
2232,72.23991869676046
2233,47.427703378117509
2,4,10, 4, 0,12, 0.00,60.00,Friday
2232,68.09080863849525
2233,45.218805360484079
2,4,10, 4, 0,13, 0.00,60.00,Friday
2232,66.45411840962014
2233,43.61313785878837
2,4,10, 4, 0,14, 0.00,60.00,Friday
2232,64.67798942590673
2233,41.34259463822507
2,4,10, 4, 0,15, 0.00,60.00,Friday
2232,60.347442832979798
2233,37.699859359772869
2,4,10, 4, 0,16, 0.00,60.00,Friday
2232,45.76207921131547
2233,28.19730149260755
2,4,10, 4, 0,17, 0.00,60.00,Friday
2232,23.584018739024029
2233,14.436484755477985
2,4,10, 4, 0,18, 0.00,60.00,Friday
2232,3.1086593078197497
2233,1.8606577321185188
2,4,10, 4, 0,19, 0.00,60.00,Friday
2232,0.0
2233,0.0
2,4,10, 4, 0,20, 0.00,60.00,Friday
2232,0.0
2233,0.0
2,4,10, 4, 0,21, 0.00,60.00,Friday
2232,0.0
2233,0.0
2,4,10, 4, 0,22, 0.00,60.00,Friday
2232,0.0
2233,0.0
2,4,10, 4, 0,23, 0.00,60.00,Friday
2232,0.0
2233,0.0
2,4,10, 4, 0,24, 0.00,60.00,Friday
2232,0.0
2233,0.0
2,5,10, 5, 0, 1, 0.00,60.00,Saturday
2232,0.0
2233,0.0
2,5,10, 5, 0, 2, 0.00,60.00,Saturday
2232,0.0
2233,0.0
2,5,10, 5, 0, 3, 0.00,60.00,Saturday
2232,0.0
2233,0.0
2,5,10, 5, 0, 4, 0.00,60.00,Saturday
2232,0.0
2233,0.0
2,5,10, 5, 0, 5, 0.00,60.00,Saturday
2232,0.0
2233,0.0
2,5,10, 5, 0, 6, 0.00,60.00,Saturday
2232,7.592922501198653
2233,4.183116852107062
2,5,10, 5, 0, 7, 0.00,60.00,Saturday
2232,42.25554892676533
2233,25.66183676909748
2,5,10, 5, 0, 8, 0.00,60.00,Saturday
2232,67.36212535111584
2233,41.31041395615157
2,5,10, 5, 0, 9, 0.00,60.00,Saturday
2232,79.4727305657817
2233,49.38808313200271
2,5,10, 5, 0,10, 0.00,60.00,Saturday
2232,76.99552495189492
2233,49.19295925080729
2,5,10, 5, 0,11, 0.00,60.00,Saturday
2232,71.08343189227488
2233,46.66519258223565
2,5,10, 5, 0,12, 0.00,60.00,Saturday
2232,64.63916073662277
2233,43.138693453208507
2,5,10, 5, 0,13, 0.00,60.00,Saturday
2232,67.68375281539353
2233,44.315096920823688
2,5,10, 5, 0,14, 0.00,60.00,Saturday
2232,75.97917780472973
2233,47.99102731293459
2,5,10, 5, 0,15, 0.00,60.00,Saturday
2232,72.07432640607574
2233,44.23801450419405
2,5,10, 5, 0,16, 0.00,60.00,Saturday
2232,49.0665679703444
2233,29.867694061643947
2,5,10, 5, 0,17, 0.00,60.00,Saturday
2232,23.36964073680556
2233,14.288820592858026
2,5,10, 5, 0,18, 0.00,60.00,Saturday
2232,2.555128327426216
2233,1.5389523110139223
2,5,10, 5, 0,19, 0.00,60.00,Saturday
2232,0.0
2233,0.0
2,5,10, 5, 0,20, 0.00,60.00,Saturday
2232,0.0
2233,0.0
2,5,10, 5, 0,21, 0.00,60.00,Saturday
2232,0.0
2233,0.0
2,5,10, 5, 0,22, 0.00,60.00,Saturday
2232,0.0
2233,0.0
2,5,10, 5, 0,23, 0.00,60.00,Saturday
2232,0.0
2233,0.0
2,5,10, 5, 0,24, 0.00,60.00,Saturday
2232,0.0
2233,0.0
2,6,10, 6, 0, 1, 0.00,60.00,Sunday
2232,0.0
2233,0.0
2,6,10, 6, 0, 2, 0.00,60.00,Sunday
2232,0.0
2233,0.0
2,6,10, 6, 0, 3, 0.00,60.00,Sunday
2232,0.0
2233,0.0
2,6,10, 6, 0, 4, 0.00,60.00,Sunday
2232,0.0
2233,0.0
2,6,10, 6, 0, 5, 0.00,60.00,Sunday
2232,0.0
2233,0.0
2,6,10, 6, 0, 6, 0.00,60.00,Sunday
2232,3.745436297916259
2233,2.363410142157852
2,6,10, 6, 0, 7, 0.00,60.00,Sunday
2232,22.980224159839766
2233,14.556908296886065
2,6,10, 6, 0, 8, 0.00,60.00,Sunday
2232,47.41970267250502
2233,29.38896809530965
2,6,10, 6, 0, 9, 0.00,60.00,Sunday
2232,72.11951477129813
2233,45.040028383414249
2,6,10, 6, 0,10, 0.00,60.00,Sunday
2232,77.87059811305562
2233,49.756372435685289
2,6,10, 6, 0,11, 0.00,60.00,Sunday
2232,72.13850317074599
2233,47.38177745403948
2,6,10, 6, 0,12, 0.00,60.00,Sunday
2232,69.29599870721748
2233,46.11662795224771
2,6,10, 6, 0,13, 0.00,60.00,Sunday
2232,67.57009547624033
2233,44.38027871909156
2,6,10, 6, 0,14, 0.00,60.00,Sunday
2232,65.00577832739727
2233,41.54868769410065
2,6,10, 6, 0,15, 0.00,60.00,Sunday
2232,58.23983338044582
2233,36.395025532646837
2,6,10, 6, 0,16, 0.00,60.00,Sunday
2232,42.99149628053653
2233,26.64379846813608
2,6,10, 6, 0,17, 0.00,60.00,Sunday
2232,21.76041608095959
2233,13.396278276780676
2,6,10, 6, 0,18, 0.00,60.00,Sunday
2232,2.23041059387208
2233,1.3527761272708888
2,6,10, 6, 0,19, 0.00,60.00,Sunday
2232,0.0
2233,0.0
2,6,10, 6, 0,20, 0.00,60.00,Sunday
2232,0.0
2233,0.0
2,6,10, 6, 0,21, 0.00,60.00,Sunday
2232,0.0
2233,0.0
2,6,10, 6, 0,22, 0.00,60.00,Sunday
2232,0.0
2233,0.0
2,6,10, 6, 0,23, 0.00,60.00,Sunday
2232,0.0
2233,0.0
2,6,10, 6, 0,24, 0.00,60.00,Sunday
2232,0.0
2233,0.0
2,7,10, 7, 0, 1, 0.00,60.00,Monday
2232,0.0
2233,0.0
2,7,10, 7, 0, 2, 0.00,60.00,Monday
2232,0.0
2233,0.0
2,7,10, 7, 0, 3, 0.00,60.00,Monday
2232,0.0
2233,0.0
2,7,10, 7, 0, 4, 0.00,60.00,Monday
2232,0.0
2233,0.0
2,7,10, 7, 0, 5, 0.00,60.00,Monday
2232,0.0
2233,0.0
2,7,10, 7, 0, 6, 0.00,60.00,Monday
2232,3.8338916702296674
2233,2.4193907058668215
2,7,10, 7, 0, 7, 0.00,60.00,Monday
2232,24.293507291441427
2233,15.38513366634927
2,7,10, 7, 0, 8, 0.00,60.00,Monday
2232,51.70896047554471
2233,32.06878291008606
2,7,10, 7, 0, 9, 0.00,60.00,Monday
2232,68.7546638312587
2233,42.95165421411929
2,7,10, 7, 0,10, 0.00,60.00,Monday
2232,71.92806045769889
2233,45.96612766504109
2,7,10, 7, 0,11, 0.00,60.00,Monday
2232,67.96736530266689
2233,44.55408289157347
2,7,10, 7, 0,12, 0.00,60.00,Monday
2232,63.35921814079887
2233,41.96540798196955
2,7,10, 7, 0,13, 0.00,60.00,Monday
2232,61.75920223757689
2233,40.48157559688424
2,7,10, 7, 0,14, 0.00,60.00,Monday
2232,59.34880395489849
2233,37.95088195860582
2,7,10, 7, 0,15, 0.00,60.00,Monday
2232,55.320293631168109
2233,34.60987165801123
2,7,10, 7, 0,16, 0.00,60.00,Monday
2232,41.32871851328896
2233,25.660963109313994
2,7,10, 7, 0,17, 0.00,60.00,Monday
2232,20.900551411855245
2233,12.906925983112828
2,7,10, 7, 0,18, 0.00,60.00,Monday
2232,2.1477009063041767
2233,1.308877173930532
2,7,10, 7, 0,19, 0.00,60.00,Monday
2232,0.0
2233,0.0
2,7,10, 7, 0,20, 0.00,60.00,Monday
2232,0.0
2233,0.0
2,7,10, 7, 0,21, 0.00,60.00,Monday
2232,0.0
2233,0.0
2,7,10, 7, 0,22, 0.00,60.00,Monday
2232,0.0
2233,0.0
2,7,10, 7, 0,23, 0.00,60.00,Monday
2232,0.0
2233,0.0
2,7,10, 7, 0,24, 0.00,60.00,Monday
2232,0.0
2233,0.0
2,8,10, 8, 0, 1, 0.00,60.00,Tuesday
2232,0.0
2233,0.0
2,8,10, 8, 0, 2, 0.00,60.00,Tuesday
2232,0.0
2233,0.0
2,8,10, 8, 0, 3, 0.00,60.00,Tuesday
2232,0.0
2233,0.0
2,8,10, 8, 0, 4, 0.00,60.00,Tuesday
2232,0.0
2233,0.0
2,8,10, 8, 0, 5, 0.00,60.00,Tuesday
2232,0.0
2233,0.0
2,8,10, 8, 0, 6, 0.00,60.00,Tuesday
2232,4.076939432489646
2233,2.566058165866481
2,8,10, 8, 0, 7, 0.00,60.00,Tuesday
2232,24.630609378474025
2233,15.604467940516854
2,8,10, 8, 0, 8, 0.00,60.00,Tuesday
2232,48.418851181512319
2233,30.035071721261529
2,8,10, 8, 0, 9, 0.00,60.00,Tuesday
2232,67.37426831637005
2233,42.10352214870863
2,8,10, 8, 0,10, 0.00,60.00,Tuesday
2232,72.22440710600262
2233,46.15597150883628
2,8,10, 8, 0,11, 0.00,60.00,Tuesday
2232,69.21287599152943
2233,45.39869453690571
2,8,10, 8, 0,12, 0.00,60.00,Tuesday
2232,63.86744136635911
2233,42.31447684610765
2,8,10, 8, 0,13, 0.00,60.00,Tuesday
2232,58.9295334432137
2233,38.63634882865679
2,8,10, 8, 0,14, 0.00,60.00,Tuesday
2232,51.37207743674117
2233,33.00576204857699
2,8,10, 8, 0,15, 0.00,60.00,Tuesday
2232,42.623312054147238
2233,26.875236854750545
2,8,10, 8, 0,16, 0.00,60.00,Tuesday
2232,29.944457197795044
2233,18.75349432294946
2,8,10, 8, 0,17, 0.00,60.00,Tuesday
2232,14.254553283408475
2233,9.014921953549317
2,8,10, 8, 0,18, 0.00,60.00,Tuesday
2232,1.480349502957824
2233,0.9322253267508915
2,8,10, 8, 0,19, 0.00,60.00,Tuesday
2232,0.0
2233,0.0
2,8,10, 8, 0,20, 0.00,60.00,Tuesday
2232,0.0
2233,0.0
2,8,10, 8, 0,21, 0.00,60.00,Tuesday
2232,0.0
2233,0.0
2,8,10, 8, 0,22, 0.00,60.00,Tuesday
2232,0.0
2233,0.0
2,8,10, 8, 0,23, 0.00,60.00,Tuesday
2232,0.0
2233,0.0
2,8,10, 8, 0,24, 0.00,60.00,Tuesday
2232,0.0
2233,0.0
2,9,10, 9, 0, 1, 0.00,60.00,Wednesday
2232,0.0
2233,0.0
2,9,10, 9, 0, 2, 0.00,60.00,Wednesday
2232,0.0
2233,0.0
2,9,10, 9, 0, 3, 0.00,60.00,Wednesday
2232,0.0
2233,0.0
2,9,10, 9, 0, 4, 0.00,60.00,Wednesday
2232,0.0
2233,0.0
2,9,10, 9, 0, 5, 0.00,60.00,Wednesday
2232,0.0
2233,0.0
2,9,10, 9, 0, 6, 0.00,60.00,Wednesday
2232,7.6144529103486369
2233,4.1906050364190039
2,9,10, 9, 0, 7, 0.00,60.00,Wednesday
2232,44.41986507371994
2233,26.729424473185703
2,9,10, 9, 0, 8, 0.00,60.00,Wednesday
2232,79.48518599309988
2233,47.835808138107918
2,9,10, 9, 0, 9, 0.00,60.00,Wednesday
2232,95.30490954633935
2233,58.34987365418775
2,9,10, 9, 0,10, 0.00,60.00,Wednesday
2232,91.10066894539027
2233,57.39829061949357
2,9,10, 9, 0,11, 0.00,60.00,Wednesday
2232,77.24891267013087
2233,50.45855421763537
2,9,10, 9, 0,12, 0.00,60.00,Wednesday
2232,68.89369540216416
2233,45.92917731399063
2,9,10, 9, 0,13, 0.00,60.00,Wednesday
2232,71.6923432986685
2233,46.945141787495177
2,9,10, 9, 0,14, 0.00,60.00,Wednesday
2232,75.4892568033142
2233,47.706170920092379
2,9,10, 9, 0,15, 0.00,60.00,Wednesday
2232,65.6719334575207
2233,40.39612798500924
2,9,10, 9, 0,16, 0.00,60.00,Wednesday
2232,43.70894762250963
2233,26.961664490835223
2,9,10, 9, 0,17, 0.00,60.00,Wednesday
2232,17.717138520844835
2233,11.085607140642736
2,9,10, 9, 0,18, 0.00,60.00,Wednesday
2232,1.6773793201718324
2233,1.0458816058687933
2,9,10, 9, 0,19, 0.00,60.00,Wednesday
2232,0.0
2233,0.0
2,9,10, 9, 0,20, 0.00,60.00,Wednesday
2232,0.0
2233,0.0
2,9,10, 9, 0,21, 0.00,60.00,Wednesday
2232,0.0
2233,0.0
2,9,10, 9, 0,22, 0.00,60.00,Wednesday
2232,0.0
2233,0.0
2,9,10, 9, 0,23, 0.00,60.00,Wednesday
2232,0.0
2233,0.0
2,9,10, 9, 0,24, 0.00,60.00,Wednesday
2232,0.0
2233,0.0
2,10,10,10, 0, 1, 0.00,60.00,Thursday
2232,0.0
2233,0.0
2,10,10,10, 0, 2, 0.00,60.00,Thursday
2232,0.0
2233,0.0
2,10,10,10, 0, 3, 0.00,60.00,Thursday
2232,0.0
2233,0.0
2,10,10,10, 0, 4, 0.00,60.00,Thursday
2232,0.0
2233,0.0
2,10,10,10, 0, 5, 0.00,60.00,Thursday
2232,0.0
2233,0.0
2,10,10,10, 0, 6, 0.00,60.00,Thursday
2232,4.2119237601442
2233,2.645251814120719
2,10,10,10, 0, 7, 0.00,60.00,Thursday
2232,25.011387177040324
2233,15.826021970641385
2,10,10,10, 0, 8, 0.00,60.00,Thursday
2232,47.53110441240091
2233,29.448219628090745
2,10,10,10, 0, 9, 0.00,60.00,Thursday
2232,72.08922936116504
2233,45.007893364609298
2,10,10,10, 0,10, 0.00,60.00,Thursday
2232,77.4207641255042
2233,49.46393873530923
2,10,10,10, 0,11, 0.00,60.00,Thursday
2232,70.76838104688227
2233,46.506150657107777
2,10,10,10, 0,12, 0.00,60.00,Thursday
2232,59.32102761709405
2233,39.695692695573168
2,10,10,10, 0,13, 0.00,60.00,Thursday
2232,67.40756230370362
2233,44.12388241214726
2,10,10,10, 0,14, 0.00,60.00,Thursday
2232,74.16706386738413
2233,46.82613662813932
2,10,10,10, 0,15, 0.00,60.00,Thursday
2232,71.5622162166935
2233,43.91276138196468
2,10,10,10, 0,16, 0.00,60.00,Thursday
2232,55.14575121872119
2233,33.34394300408921
2,10,10,10, 0,17, 0.00,60.00,Thursday
2232,28.3238277836444
2233,16.928684582884157
2,10,10,10, 0,18, 0.00,60.00,Thursday
2232,2.9865403941456329
2233,1.7329979543713965
2,10,10,10, 0,19, 0.00,60.00,Thursday
2232,0.0
2233,0.0
2,10,10,10, 0,20, 0.00,60.00,Thursday
2232,0.0
2233,0.0
2,10,10,10, 0,21, 0.00,60.00,Thursday
2232,0.0
2233,0.0
2,10,10,10, 0,22, 0.00,60.00,Thursday
2232,0.0
2233,0.0
2,10,10,10, 0,23, 0.00,60.00,Thursday
2232,0.0
2233,0.0
2,10,10,10, 0,24, 0.00,60.00,Thursday
2232,0.0
2233,0.0
2,11,10,11, 0, 1, 0.00,60.00,Friday
2232,0.0
2233,0.0
2,11,10,11, 0, 2, 0.00,60.00,Friday
2232,0.0
2233,0.0
2,11,10,11, 0, 3, 0.00,60.00,Friday
2232,0.0
2233,0.0
2,11,10,11, 0, 4, 0.00,60.00,Friday
2232,0.0
2233,0.0
2,11,10,11, 0, 5, 0.00,60.00,Friday
2232,0.0
2233,0.0
2,11,10,11, 0, 6, 0.00,60.00,Friday
2232,4.697269167790012
2233,2.9260968665000237
2,11,10,11, 0, 7, 0.00,60.00,Friday
2232,28.35627486058714
2233,17.89665463485703
2,11,10,11, 0, 8, 0.00,60.00,Friday
2232,53.72035255922824
2233,33.29949110520075
2,11,10,11, 0, 9, 0.00,60.00,Friday
2232,69.42783348816514
2233,43.35543423784966
2,11,10,11, 0,10, 0.00,60.00,Friday
2232,72.34541280503008
2233,46.22228655332585
2,11,10,11, 0,11, 0.00,60.00,Friday
2232,69.47942446350165
2233,45.55844349856994
2,11,10,11, 0,12, 0.00,60.00,Friday
2232,67.62159219211682
2233,44.89837562324572
2,11,10,11, 0,13, 0.00,60.00,Friday
2232,67.31935843836804
2233,44.224249328091129
2,11,10,11, 0,14, 0.00,60.00,Friday
2232,66.6661100518099
2233,42.54515005476209
2,11,10,11, 0,15, 0.00,60.00,Friday
2232,59.639800430238867
2233,37.25643265987968
2,11,10,11, 0,16, 0.00,60.00,Friday
2232,42.67060866174912
2233,26.388859340609029
2,11,10,11, 0,17, 0.00,60.00,Friday
2232,20.459960009259829
2233,12.599574599683536
2,11,10,11, 0,18, 0.00,60.00,Friday
2232,2.0885976842417226
2233,1.2701402225085386
2,11,10,11, 0,19, 0.00,60.00,Friday
2232,0.0
2233,0.0
2,11,10,11, 0,20, 0.00,60.00,Friday
2232,0.0
2233,0.0
2,11,10,11, 0,21, 0.00,60.00,Friday
2232,0.0
2233,0.0
2,11,10,11, 0,22, 0.00,60.00,Friday
2232,0.0
2233,0.0
2,11,10,11, 0,23, 0.00,60.00,Friday
2232,0.0
2233,0.0
2,11,10,11, 0,24, 0.00,60.00,Friday
2232,0.0
2233,0.0
2,12,10,12, 0, 1, 0.00,60.00,Saturday
2232,0.0
2233,0.0
2,12,10,12, 0, 2, 0.00,60.00,Saturday
2232,0.0
2233,0.0
2,12,10,12, 0, 3, 0.00,60.00,Saturday
2232,0.0
2233,0.0
2,12,10,12, 0, 4, 0.00,60.00,Saturday
2232,0.0
2233,0.0
2,12,10,12, 0, 5, 0.00,60.00,Saturday
2232,0.0
2233,0.0
2,12,10,12, 0, 6, 0.00,60.00,Saturday
2232,4.475916914419887
2233,2.800196473674371
2,12,10,12, 0, 7, 0.00,60.00,Saturday
2232,27.780398644949199
2233,17.53604995154709
2,12,10,12, 0, 8, 0.00,60.00,Saturday
2232,54.81131649640892
2233,33.99222808447547
2,12,10,12, 0, 9, 0.00,60.00,Saturday
2232,71.4165039969079
2233,44.584438220896547
2,12,10,12, 0,10, 0.00,60.00,Saturday
2232,74.07775717907454
2233,47.31635264021842
2,12,10,12, 0,11, 0.00,60.00,Saturday
2232,70.04737839383586
2233,45.94852780004206
2,12,10,12, 0,12, 0.00,60.00,Saturday
2232,66.47761420382769
2233,44.10713314414583
2,12,10,12, 0,13, 0.00,60.00,Saturday
2232,64.73940965298987
2233,42.469506873780797
2,12,10,12, 0,14, 0.00,60.00,Saturday
2232,63.10479931581937
2233,40.338985710003218
2,12,10,12, 0,15, 0.00,60.00,Saturday
2232,56.424080684359868
2233,35.271615344764338
2,12,10,12, 0,16, 0.00,60.00,Saturday
2232,41.079985332260509
2233,25.486211570658527
2,12,10,12, 0,17, 0.00,60.00,Saturday
2232,19.24407886127462
2233,11.912814646694818
2,12,10,12, 0,18, 0.00,60.00,Saturday
2232,1.9185775419632088
2233,1.1752618172636956
2,12,10,12, 0,19, 0.00,60.00,Saturday
2232,0.0
2233,0.0
2,12,10,12, 0,20, 0.00,60.00,Saturday
2232,0.0
2233,0.0
2,12,10,12, 0,21, 0.00,60.00,Saturday
2232,0.0
2233,0.0
2,12,10,12, 0,22, 0.00,60.00,Saturday
2232,0.0
2233,0.0
2,12,10,12, 0,23, 0.00,60.00,Saturday
2232,0.0
2233,0.0
2,12,10,12, 0,24, 0.00,60.00,Saturday
2232,0.0
2233,0.0
2,13,10,13, 0, 1, 0.00,60.00,Sunday
2232,0.0
2233,0.0
2,13,10,13, 0, 2, 0.00,60.00,Sunday
2232,0.0
2233,0.0
2,13,10,13, 0, 3, 0.00,60.00,Sunday
2232,0.0
2233,0.0
2,13,10,13, 0, 4, 0.00,60.00,Sunday
2232,0.0
2233,0.0
2,13,10,13, 0, 5, 0.00,60.00,Sunday
2232,0.0
2233,0.0
2,13,10,13, 0, 6, 0.00,60.00,Sunday
2232,4.689777565521629
2233,2.922139712559453
2,13,10,13, 0, 7, 0.00,60.00,Sunday
2232,28.276565137009198
2233,17.84979893660079
2,13,10,13, 0, 8, 0.00,60.00,Sunday
2232,53.751155814763148
2233,33.32314471916761
2,13,10,13, 0, 9, 0.00,60.00,Sunday
2232,71.16899687067185
2233,44.43101549069085
2,13,10,13, 0,10, 0.00,60.00,Sunday
2232,74.58845627437556
2233,47.64048736084953
2,13,10,13, 0,11, 0.00,60.00,Sunday
2232,70.50772694485852
2233,46.261068353737908
2,13,10,13, 0,12, 0.00,60.00,Sunday
2232,67.21326467028277
2233,44.643166780833897
2,13,10,13, 0,13, 0.00,60.00,Sunday
2232,66.27071054873771
2233,43.515133362000749
2,13,10,13, 0,14, 0.00,60.00,Sunday
2232,65.60122891687833
2233,41.93442667030341
2,13,10,13, 0,15, 0.00,60.00,Sunday
2232,58.50370182362676
2233,36.55055843273057
2,13,10,13, 0,16, 0.00,60.00,Sunday
2232,42.54345695274849
2233,26.280753578058819
2,13,10,13, 0,17, 0.00,60.00,Sunday
2232,19.844430861015714
2233,12.234383252108563
2,13,10,13, 0,18, 0.00,60.00,Sunday
2232,1.9755776635784557
2233,1.2023438137759986
2,13,10,13, 0,19, 0.00,60.00,Sunday
2232,0.0
2233,0.0
2,13,10,13, 0,20, 0.00,60.00,Sunday
2232,0.0
2233,0.0
2,13,10,13, 0,21, 0.00,60.00,Sunday
2232,0.0
2233,0.0
2,13,10,13, 0,22, 0.00,60.00,Sunday
2232,0.0
2233,0.0
2,13,10,13, 0,23, 0.00,60.00,Sunday
2232,0.0
2233,0.0
2,13,10,13, 0,24, 0.00,60.00,Sunday
2232,0.0
2233,0.0
2,14,10,14, 0, 1, 0.00,60.00,Monday
2232,0.0
2233,0.0
2,14,10,14, 0, 2, 0.00,60.00,Monday
2232,0.0
2233,0.0
2,14,10,14, 0, 3, 0.00,60.00,Monday
2232,0.0
2233,0.0
2,14,10,14, 0, 4, 0.00,60.00,Monday
2232,0.0
2233,0.0
2,14,10,14, 0, 5, 0.00,60.00,Monday
2232,0.0
2233,0.0
2,14,10,14, 0, 6, 0.00,60.00,Monday
2232,5.560406782856916
2233,3.3643706620796545
2,14,10,14, 0, 7, 0.00,60.00,Monday
2232,33.72850695103502
2233,21.181885139024446
2,14,10,14, 0, 8, 0.00,60.00,Monday
2232,67.61216283736724
2233,41.4190612958565
2,14,10,14, 0, 9, 0.00,60.00,Monday
2232,81.31927250298736
2233,50.37580589607263
2,14,10,14, 0,10, 0.00,60.00,Monday
2232,79.16990556220959
2233,50.39837270051502
2,14,10,14, 0,11, 0.00,60.00,Monday
2232,69.8528910484583
2233,45.87292159668343
2,14,10,14, 0,12, 0.00,60.00,Monday
2232,58.3734620615219
2233,39.06444903601665
2,14,10,14, 0,13, 0.00,60.00,Monday
2232,60.504133645409847
2233,39.672798791351308
2,14,10,14, 0,14, 0.00,60.00,Monday
2232,68.81345248793088
2233,43.46039531418361
2,14,10,14, 0,15, 0.00,60.00,Monday
2232,62.52929943419019
2233,38.44659189281671
2,14,10,14, 0,16, 0.00,60.00,Monday
2232,48.7565285961355
2233,29.59167021998832
2,14,10,14, 0,17, 0.00,60.00,Monday
2232,26.389676589669823
2233,15.823262165194807
2,14,10,14, 0,18, 0.00,60.00,Monday
2232,2.7254348960598095
2233,1.5867719786060529
2,14,10,14, 0,19, 0.00,60.00,Monday
2232,0.0
2233,0.0
2,14,10,14, 0,20, 0.00,60.00,Monday
2232,0.0
2233,0.0
2,14,10,14, 0,21, 0.00,60.00,Monday
2232,0.0
2233,0.0
2,14,10,14, 0,22, 0.00,60.00,Monday
2232,0.0
2233,0.0
2,14,10,14, 0,23, 0.00,60.00,Monday
2232,0.0
2233,0.0
2,14,10,14, 0,24, 0.00,60.00,Monday
2232,0.0
2233,0.0
2,15,10,15, 0, 1, 0.00,60.00,Tuesday
2232,0.0
2233,0.0
2,15,10,15, 0, 2, 0.00,60.00,Tuesday
2232,0.0
2233,0.0
2,15,10,15, 0, 3, 0.00,60.00,Tuesday
2232,0.0
2233,0.0
2,15,10,15, 0, 4, 0.00,60.00,Tuesday
2232,0.0
2233,0.0
2,15,10,15, 0, 5, 0.00,60.00,Tuesday
2232,0.0
2233,0.0
2,15,10,15, 0, 6, 0.00,60.00,Tuesday
2232,7.395078572600973
2233,4.097934530698765
2,15,10,15, 0, 7, 0.00,60.00,Tuesday
2232,43.53534519010475
2233,26.257433255971397
2,15,10,15, 0, 8, 0.00,60.00,Tuesday
2232,79.03161269670734
2233,47.54418936340041
2,15,10,15, 0, 9, 0.00,60.00,Tuesday
2232,93.34796010081544
2233,57.25326183728686
2,15,10,15, 0,10, 0.00,60.00,Tuesday
2232,86.66579737595656
2233,54.685604728843639
2,15,10,15, 0,11, 0.00,60.00,Tuesday
2232,67.01403418359223
2233,43.91056858450629
2,15,10,15, 0,12, 0.00,60.00,Tuesday
2232,63.75721577611207
2233,42.58013995843455
2,15,10,15, 0,13, 0.00,60.00,Tuesday
2232,68.60000260585204
2233,44.912423022372539
2,15,10,15, 0,14, 0.00,60.00,Tuesday
2232,75.02477747010089
2233,47.420373904177989
2,15,10,15, 0,15, 0.00,60.00,Tuesday
2232,70.32098015657492
2233,43.15877237870959
2,15,10,15, 0,16, 0.00,60.00,Tuesday
2232,48.741584088663227
2233,29.595693659922799
2,15,10,15, 0,17, 0.00,60.00,Tuesday
2232,21.611785314950397
2233,13.172957627258813
2,15,10,15, 0,18, 0.00,60.00,Tuesday
2232,2.2381049080487038
2233,1.3375880839512764
2,15,10,15, 0,19, 0.00,60.00,Tuesday
2232,0.0
2233,0.0
2,15,10,15, 0,20, 0.00,60.00,Tuesday
2232,0.0
2233,0.0
2,15,10,15, 0,21, 0.00,60.00,Tuesday
2232,0.0
2233,0.0
2,15,10,15, 0,22, 0.00,60.00,Tuesday
2232,0.0
2233,0.0
2,15,10,15, 0,23, 0.00,60.00,Tuesday
2232,0.0
2233,0.0
2,15,10,15, 0,24, 0.00,60.00,Tuesday
2232,0.0
2233,0.0
2,16,10,16, 0, 1, 0.00,60.00,Wednesday
2232,0.0
2233,0.0
2,16,10,16, 0, 2, 0.00,60.00,Wednesday
2232,0.0
2233,0.0
2,16,10,16, 0, 3, 0.00,60.00,Wednesday
2232,0.0
2233,0.0
2,16,10,16, 0, 4, 0.00,60.00,Wednesday
2232,0.0
2233,0.0
2,16,10,16, 0, 5, 0.00,60.00,Wednesday
2232,0.0
2233,0.0
2,16,10,16, 0, 6, 0.00,60.00,Wednesday
2232,10.034209483408923
2233,5.108957026305648
2,16,10,16, 0, 7, 0.00,60.00,Wednesday
2232,52.90602515875088
2233,30.44611384160862
2,16,10,16, 0, 8, 0.00,60.00,Wednesday
2232,86.855874838651
2233,50.85873473080696
2,16,10,16, 0, 9, 0.00,60.00,Wednesday
2232,98.36486887281734
2233,59.72871598493117
2,16,10,16, 0,10, 0.00,60.00,Wednesday
2232,92.17818221144479
2233,57.9855285497444
2,16,10,16, 0,11, 0.00,60.00,Wednesday
2232,76.8139396876327
2233,50.16300007563864
2,16,10,16, 0,12, 0.00,60.00,Wednesday
2232,67.04219774123593
2233,44.70888666439256
2,16,10,16, 0,13, 0.00,60.00,Wednesday
2232,69.79481192820765
2233,45.692452547569299
2,16,10,16, 0,14, 0.00,60.00,Wednesday
2232,75.43401471564691
2233,47.708360690208397
2,16,10,16, 0,15, 0.00,60.00,Wednesday
2232,72.15664676556209
2233,44.3017089943539
2,16,10,16, 0,16, 0.00,60.00,Wednesday
2232,61.87345873226511
2233,36.9353709053152
2,16,10,16, 0,17, 0.00,60.00,Wednesday
2232,34.45546515416863
2233,19.840059051116595
2,16,10,16, 0,18, 0.00,60.00,Wednesday
2232,3.4893000796735125
2233,1.9202976222096123
2,16,10,16, 0,19, 0.00,60.00,Wednesday
2232,0.0
2233,0.0
2,16,10,16, 0,20, 0.00,60.00,Wednesday
2232,0.0
2233,0.0
2,16,10,16, 0,21, 0.00,60.00,Wednesday
2232,0.0
2233,0.0
2,16,10,16, 0,22, 0.00,60.00,Wednesday
2232,0.0
2233,0.0
2,16,10,16, 0,23, 0.00,60.00,Wednesday
2232,0.0
2233,0.0
2,16,10,16, 0,24, 0.00,60.00,Wednesday
2232,0.0
2233,0.0
2,17,10,17, 0, 1, 0.00,60.00,Thursday
2232,0.0
2233,0.0
2,17,10,17, 0, 2, 0.00,60.00,Thursday
2232,0.0
2233,0.0
2,17,10,17, 0, 3, 0.00,60.00,Thursday
2232,0.0
2233,0.0
2,17,10,17, 0, 4, 0.00,60.00,Thursday
2232,0.0
2233,0.0
2,17,10,17, 0, 5, 0.00,60.00,Thursday
2232,0.0
2233,0.0
2,17,10,17, 0, 6, 0.00,60.00,Thursday
2232,5.063579328503679
2233,3.12088241823486
2,17,10,17, 0, 7, 0.00,60.00,Thursday
2232,30.032768720321078
2233,18.915413481538793
2,17,10,17, 0, 8, 0.00,60.00,Thursday
2232,56.55321015085273
2233,35.057548663630829
2,17,10,17, 0, 9, 0.00,60.00,Thursday
2232,76.50202113044031
2233,47.706460930593859
2,17,10,17, 0,10, 0.00,60.00,Thursday
2232,78.92168059721768
2233,50.14308324609397
2,17,10,17, 0,11, 0.00,60.00,Thursday
2232,68.9010847334806
2233,45.2021015091774
2,17,10,17, 0,12, 0.00,60.00,Thursday
2232,64.62388815344522
2233,43.104670521547379
2,17,10,17, 0,13, 0.00,60.00,Thursday
2232,64.57328451361879
2233,42.43576109498682
2,17,10,17, 0,14, 0.00,60.00,Thursday
2232,65.42551300934614
2233,41.75596826343821
2,17,10,17, 0,15, 0.00,60.00,Thursday
2232,59.86942689403179
2233,37.110619104590139
2,17,10,17, 0,16, 0.00,60.00,Thursday
2232,45.39723595953783
2233,27.628241559787985
2,17,10,17, 0,17, 0.00,60.00,Thursday
2232,23.7214483000555
2233,14.33377112259405
2,17,10,17, 0,18, 0.00,60.00,Thursday
2232,2.285359801373883
2233,1.343702023729379
2,17,10,17, 0,19, 0.00,60.00,Thursday
2232,0.0
2233,0.0
2,17,10,17, 0,20, 0.00,60.00,Thursday
2232,0.0
2233,0.0
2,17,10,17, 0,21, 0.00,60.00,Thursday
2232,0.0
2233,0.0
2,17,10,17, 0,22, 0.00,60.00,Thursday
2232,0.0
2233,0.0
2,17,10,17, 0,23, 0.00,60.00,Thursday
2232,0.0
2233,0.0
2,17,10,17, 0,24, 0.00,60.00,Thursday
2232,0.0
2233,0.0
2,18,10,18, 0, 1, 0.00,60.00,Friday
2232,0.0
2233,0.0
2,18,10,18, 0, 2, 0.00,60.00,Friday
2232,0.0
2233,0.0
2,18,10,18, 0, 3, 0.00,60.00,Friday
2232,0.0
2233,0.0
2,18,10,18, 0, 4, 0.00,60.00,Friday
2232,0.0
2233,0.0
2,18,10,18, 0, 5, 0.00,60.00,Friday
2232,0.0
2233,0.0
2,18,10,18, 0, 6, 0.00,60.00,Friday
2232,4.815580445496232
2233,2.984668742684589
2,18,10,18, 0, 7, 0.00,60.00,Friday
2232,28.877970050056406
2233,18.199414765020177
2,18,10,18, 0, 8, 0.00,60.00,Friday
2232,55.903850790783888
2233,34.657592256917819
2,18,10,18, 0, 9, 0.00,60.00,Friday