Program Version,EnergyPlus, Version 8.7.0-78a111df4a, YMD=2019.11.21 11:12
1,5,Environment Title[],Latitude[deg],Longitude[deg],Time Zone[],Elevation[m]
2,6,Day of Simulation[],Month[],Day of Month[],DST Indicator[1=yes 0=no],Hour[],StartMinute[],EndMinute[],DayType
3,3,Cumulative Day of Simulation[],Month[],Day of Month[],DST Indicator[1=yes 0=no],DayType  ! When Daily Report Variables Requested
4,2,Cumulative Days of Simulation[],Month[]  ! When Monthly Report Variables Requested
5,1,Cumulative Days of Simulation[] ! When Run Period Report Variables Requested
6,1,Environment,Site Outdoor Air Dewpoint Temperature [C] !Hourly
7,1,Environment,Site Outdoor Air Wetbulb Temperature [C] !Hourly
End of Data Dictionary
1,RUNPERIOD,  10.30, 123.97,   8.00,  24.00
2,1, 1, 1, 0, 1, 0.00,60.00,Holiday
6,24.21666666666667
7,24.44193038036028
2,1, 1, 1, 0, 2, 0.00,60.00,Holiday
6,24.183333333333335
7,24.337879115947147
2,1, 1, 1, 0, 3, 0.00,60.00,Holiday
6,24.275000000000003
7,24.39887327504616
2,1, 1, 1, 0, 4, 0.00,60.00,Holiday
6,24.575
7,24.654623124182199
2,1, 1, 1, 0, 5, 0.00,60.00,Holiday
6,24.816666666666668
7,24.86476573784988
2,1, 1, 1, 0, 6, 0.00,60.00,Holiday
6,25.016666666666667
7,25.079619236593616
2,1, 1, 1, 0, 7, 0.00,60.00,Holiday
6,25.21666666666667
7,25.332288141562044
2,1, 1, 1, 0, 8, 0.00,60.00,Holiday
6,25.416666666666669
7,25.623584188947008
2,1, 1, 1, 0, 9, 0.00,60.00,Holiday
6,25.675
7,26.05400921207941
2,1, 1, 1, 0,10, 0.00,60.00,Holiday
6,25.916666666666669
7,26.593821108419509
2,1, 1, 1, 0,11, 0.00,60.00,Holiday
6,26.058333333333335
7,27.03402520225733
2,1, 1, 1, 0,12, 0.00,60.00,Holiday
6,25.983333333333336
7,27.152988129660228
2,1, 1, 1, 0,13, 0.00,60.00,Holiday
6,25.84166666666667
7,27.079787471901399
2,1, 1, 1, 0,14, 0.00,60.00,Holiday
6,25.683333333333335
7,26.80956486357863
2,1, 1, 1, 0,15, 0.00,60.00,Holiday
6,25.599999999999999
7,26.552553296320239
2,1, 1, 1, 0,16, 0.00,60.00,Holiday
6,25.541666666666669
7,26.24547766949866
2,1, 1, 1, 0,17, 0.00,60.00,Holiday
6,25.325
7,25.803533424941379
2,1, 1, 1, 0,18, 0.00,60.00,Holiday
6,24.791666666666669
7,25.154835068817165
2,1, 1, 1, 0,19, 0.00,60.00,Holiday
6,24.208333333333333
7,24.542415713090788
2,1, 1, 1, 0,20, 0.00,60.00,Holiday
6,23.649999999999996
7,23.952655618171197
2,1, 1, 1, 0,21, 0.00,60.00,Holiday
6,23.575
7,23.849655435527585
2,1, 1, 1, 0,22, 0.00,60.00,Holiday
6,23.816666666666668
7,24.071062964978457
2,1, 1, 1, 0,23, 0.00,60.00,Holiday
6,24.075
7,24.31296795714225
2,1, 1, 1, 0,24, 0.00,60.00,Holiday
6,24.141666666666667
7,24.396180056346695
2,2, 1, 2, 0, 1, 0.00,60.00,Monday
6,24.099999999999999
7,24.326687497767769
2,2, 1, 2, 0, 2, 0.00,60.00,Monday
6,24.041666666666669
7,24.181873366318077
2,2, 1, 2, 0, 3, 0.00,60.00,Monday
6,24.058333333333335
7,24.15714341460412
2,2, 1, 2, 0, 4, 0.00,60.00,Monday
6,24.21666666666667
7,24.345569899176739
2,2, 1, 2, 0, 5, 0.00,60.00,Monday
6,24.358333333333336
7,24.508406084782405
2,2, 1, 2, 0, 6, 0.00,60.00,Monday
6,24.458333333333333
7,24.69719130501956
2,2, 1, 2, 0, 7, 0.00,60.00,Monday
6,24.616666666666665
7,25.05591489138516
2,2, 1, 2, 0, 8, 0.00,60.00,Monday
6,24.816666666666668
7,25.475143314233536
2,2, 1, 2, 0, 9, 0.00,60.00,Monday
6,25.075
7,25.80722394083938
2,2, 1, 2, 0,10, 0.00,60.00,Monday
6,25.316666666666668
7,26.060758630382386
2,2, 1, 2, 0,11, 0.00,60.00,Monday
6,25.400000000000003
7,26.21252712645988
2,2, 1, 2, 0,12, 0.00,60.00,Monday
6,25.224999999999999
7,26.05436594028441
2,2, 1, 2, 0,13, 0.00,60.00,Monday
6,24.925
7,25.778504442509087
2,2, 1, 2, 0,14, 0.00,60.00,Monday
6,24.625
7,25.48982794860979
2,2, 1, 2, 0,15, 0.00,60.00,Monday
6,24.441666666666668
7,25.24128443194618
2,2, 1, 2, 0,16, 0.00,60.00,Monday
6,24.400000000000003
7,25.06929754306802
2,2, 1, 2, 0,17, 0.00,60.00,Monday
6,24.400000000000003
7,24.90005953401341
2,2, 1, 2, 0,18, 0.00,60.00,Monday
6,24.400000000000003
7,24.71423212413905
2,2, 1, 2, 0,19, 0.00,60.00,Monday
6,24.400000000000003
7,24.569926216358537
2,2, 1, 2, 0,20, 0.00,60.00,Monday
6,24.399998982747396
7,24.45241668997902
2,2, 1, 2, 0,21, 0.00,60.00,Monday
6,24.341657855904506
7,24.341657855904506
2,2, 1, 2, 0,22, 0.00,60.00,Monday
6,24.29998779296875
7,24.29998779296875
2,2, 1, 2, 0,23, 0.00,60.00,Monday
6,24.24165801202623
7,24.24165801202623
2,2, 1, 2, 0,24, 0.00,60.00,Monday
6,24.025000000000003
7,24.070005978309866
2,3, 1, 3, 0, 1, 0.00,60.00,Tuesday
6,23.724999999999999
7,23.789070267698503
2,3, 1, 3, 0, 2, 0.00,60.00,Tuesday
6,23.425
7,23.52492107163917
2,3, 1, 3, 0, 3, 0.00,60.00,Tuesday
6,23.241666666666665
7,23.460474760659755
2,3, 1, 3, 0, 4, 0.00,60.00,Tuesday
6,23.083333333333333
7,23.430708111706154
2,3, 1, 3, 0, 5, 0.00,60.00,Tuesday
6,22.941666666666668
7,23.41439877687677
2,3, 1, 3, 0, 6, 0.00,60.00,Tuesday
6,23.016666666666667
7,23.447137439591768
2,3, 1, 3, 0, 7, 0.00,60.00,Tuesday
6,23.333333333333333
7,23.685959948210767
2,3, 1, 3, 0, 8, 0.00,60.00,Tuesday
6,23.733333333333336
7,24.035356156539107
2,3, 1, 3, 0, 9, 0.00,60.00,Tuesday
6,24.13333333333333
7,24.461139863493206
2,3, 1, 3, 0,10, 0.00,60.00,Tuesday
6,24.474999999999999
7,24.943994036221925
2,3, 1, 3, 0,11, 0.00,60.00,Tuesday
6,24.775000000000003
7,25.405112067391518
2,3, 1, 3, 0,12, 0.00,60.00,Tuesday
6,25.016666666666667
7,25.732321533617069
2,3, 1, 3, 0,13, 0.00,60.00,Tuesday
6,25.21666666666667
7,25.915514706872786
2,3, 1, 3, 0,14, 0.00,60.00,Tuesday
6,25.3
7,25.974176149144446
2,3, 1, 3, 0,15, 0.00,60.00,Tuesday
6,25.24166666666667
7,25.917898757442644
2,3, 1, 3, 0,16, 0.00,60.00,Tuesday
6,25.025000000000003
7,25.738920058840166
2,3, 1, 3, 0,17, 0.00,60.00,Tuesday
6,24.725000000000006
7,25.41568711063697
2,3, 1, 3, 0,18, 0.00,60.00,Tuesday
6,24.36666666666667
7,25.058832535426637
2,3, 1, 3, 0,19, 0.00,60.00,Tuesday
6,23.96666666666667
7,24.668201509188717
2,3, 1, 3, 0,20, 0.00,60.00,Tuesday
6,23.566666666666668
7,24.266869237511775
2,3, 1, 3, 0,21, 0.00,60.00,Tuesday
6,23.458333333333333
7,24.15552021426642
2,3, 1, 3, 0,22, 0.00,60.00,Tuesday
6,23.5
7,24.099436682415484
2,3, 1, 3, 0,23, 0.00,60.00,Tuesday
6,23.558333333333338
7,24.078152987130414
2,3, 1, 3, 0,24, 0.00,60.00,Tuesday
6,23.599999999999999
7,24.143870848266564
2,4, 1, 4, 0, 1, 0.00,60.00,Wednesday
6,23.658333333333336
7,24.225573275361893
2,4, 1, 4, 0, 2, 0.00,60.00,Wednesday
6,23.7
7,24.300498277106504
2,4, 1, 4, 0, 3, 0.00,60.00,Wednesday
6,23.758333333333338
7,24.312289118597737
2,4, 1, 4, 0, 4, 0.00,60.00,Wednesday
6,23.858333333333336
7,24.305628713455975
2,4, 1, 4, 0, 5, 0.00,60.00,Wednesday
6,23.958333333333333
7,24.284792882980768
2,4, 1, 4, 0, 6, 0.00,60.00,Wednesday
6,24.0
7,24.368058960640935
2,4, 1, 4, 0, 7, 0.00,60.00,Wednesday
6,24.0
7,24.552589423267709
2,4, 1, 4, 0, 8, 0.00,60.00,Wednesday
6,24.058333333333335
7,24.832109315123565
2,4, 1, 4, 0, 9, 0.00,60.00,Wednesday
6,24.275000000000003
7,25.291862657666856
2,4, 1, 4, 0,10, 0.00,60.00,Wednesday
6,24.458333333333333
7,25.63636300444007
2,4, 1, 4, 0,11, 0.00,60.00,Wednesday
6,24.558333333333335
7,25.787079505455766
2,4, 1, 4, 0,12, 0.00,60.00,Wednesday
6,24.425
7,25.69083536987466
2,4, 1, 4, 0,13, 0.00,60.00,Wednesday
6,24.125
7,25.370751461411556
2,4, 1, 4, 0,14, 0.00,60.00,Wednesday
6,23.88333333333334
7,25.091628081090023
2,4, 1, 4, 0,15, 0.00,60.00,Wednesday
6,23.974999999999999
7,25.05237354241113
2,4, 1, 4, 0,16, 0.00,60.00,Wednesday
6,24.21666666666667
7,25.15904745293123
2,4, 1, 4, 0,17, 0.00,60.00,Wednesday
6,24.358333333333336
7,25.12573137761468
2,4, 1, 4, 0,18, 0.00,60.00,Wednesday
6,24.225000000000006
7,24.860498511591375
2,4, 1, 4, 0,19, 0.00,60.00,Wednesday
6,23.86666666666667
7,24.48623922459487
2,4, 1, 4, 0,20, 0.00,60.00,Wednesday
6,23.525000000000003
7,24.065063243888223
2,4, 1, 4, 0,21, 0.00,60.00,Wednesday
6,23.458333333333333
7,23.97024714384372
2,4, 1, 4, 0,22, 0.00,60.00,Wednesday
6,23.5
7,24.102513569982663
2,4, 1, 4, 0,23, 0.00,60.00,Wednesday
6,23.558333333333338
7,24.237067082061725
2,4, 1, 4, 0,24, 0.00,60.00,Wednesday
6,23.541666666666669
7,24.2680674660249
2,5, 1, 5, 0, 1, 0.00,60.00,Thursday
6,23.5
7,24.15693529028847
2,5, 1, 5, 0, 2, 0.00,60.00,Thursday
6,23.441666666666668
7,24.059426539891676
2,5, 1, 5, 0, 3, 0.00,60.00,Thursday
6,23.34166666666667
7,23.922201347393999
2,5, 1, 5, 0, 4, 0.00,60.00,Thursday
6,23.241666666666665
7,23.750320015476779
2,5, 1, 5, 0, 5, 0.00,60.00,Thursday
6,23.141666666666667
7,23.648379655273187
2,5, 1, 5, 0, 6, 0.00,60.00,Thursday
6,23.275000000000003
7,23.717611077809236
2,5, 1, 5, 0, 7, 0.00,60.00,Thursday
6,23.691666666666664
7,24.050188561585104
2,5, 1, 5, 0, 8, 0.00,60.00,Thursday
6,24.13333333333333
7,24.450676809116925
2,5, 1, 5, 0, 9, 0.00,60.00,Thursday
6,24.474999999999999
7,24.861474767906228
2,5, 1, 5, 0,10, 0.00,60.00,Thursday
6,24.71666666666667
7,25.339093688732566
2,5, 1, 5, 0,11, 0.00,60.00,Thursday
6,24.8
7,25.62230477972767
2,5, 1, 5, 0,12, 0.00,60.00,Thursday
6,24.566666666666668
7,25.59080875515654
2,5, 1, 5, 0,13, 0.00,60.00,Thursday
6,24.28333333333333
7,25.493279726226417
2,5, 1, 5, 0,14, 0.00,60.00,Thursday
6,24.083333333333333
7,25.32101267245923
2,5, 1, 5, 0,15, 0.00,60.00,Thursday
6,24.175
7,25.307326317581518
2,5, 1, 5, 0,16, 0.00,60.00,Thursday
6,24.53333333333333
7,25.473134889144928
2,5, 1, 5, 0,17, 0.00,60.00,Thursday
6,24.875
7,25.54241077249694
2,5, 1, 5, 0,18, 0.00,60.00,Thursday
6,25.0
7,25.44306079001232
2,5, 1, 5, 0,19, 0.00,60.00,Thursday
6,24.825
7,25.22437035527729
2,5, 1, 5, 0,20, 0.00,60.00,Thursday
6,24.583333333333333
7,24.988633598283469
2,5, 1, 5, 0,21, 0.00,60.00,Thursday
6,24.383333333333338
7,24.68497138414807
2,5, 1, 5, 0,22, 0.00,60.00,Thursday
6,24.241666666666665
7,24.39693286261837
2,5, 1, 5, 0,23, 0.00,60.00,Thursday
6,24.083333333333333
7,24.155330247858797
2,5, 1, 5, 0,24, 0.00,60.00,Thursday
6,23.941666666666668
7,23.99463474598019
2,6, 1, 6, 0, 1, 0.00,60.00,Friday
6,23.78333333333333
7,23.880685389187609
2,6, 1, 6, 0, 2, 0.00,60.00,Friday
6,23.641666666666667
7,23.77094218827625
2,6, 1, 6, 0, 3, 0.00,60.00,Friday
6,23.71666666666667
7,23.80202025315863
2,6, 1, 6, 0, 4, 0.00,60.00,Friday
6,23.916665421015599
7,23.939294791114436
2,6, 1, 6, 0, 5, 0.00,60.00,Friday
6,23.999992526093597
7,23.999992526093597
2,6, 1, 6, 0, 6, 0.00,60.00,Friday
6,24.233325435769144
7,24.233325435769144
2,6, 1, 6, 0, 7, 0.00,60.00,Friday
6,24.516666666666667
7,24.546133677554335
2,6, 1, 6, 0, 8, 0.00,60.00,Friday
6,24.65833333333333
7,24.83184281532662
2,6, 1, 6, 0, 9, 0.00,60.00,Friday
6,24.758333333333338
7,25.090878570482869
2,6, 1, 6, 0,10, 0.00,60.00,Friday
6,24.858333333333336
7,25.39101112910205
2,6, 1, 6, 0,11, 0.00,60.00,Friday
6,24.900000000000003
7,25.62802867218564
2,6, 1, 6, 0,12, 0.00,60.00,Friday
6,24.900000000000003
7,25.659759750290378
2,6, 1, 6, 0,13, 0.00,60.00,Friday
6,24.900000000000003
7,25.6676765963683
2,6, 1, 6, 0,14, 0.00,60.00,Friday
6,24.900000000000003
7,25.65999140640731
2,6, 1, 6, 0,15, 0.00,60.00,Friday
6,24.900000000000003
7,25.610952678656248
2,6, 1, 6, 0,16, 0.00,60.00,Friday
6,24.841666666666666
7,25.50397897014771
2,6, 1, 6, 0,17, 0.00,60.00,Friday
6,24.8
7,25.378801241084699
2,6, 1, 6, 0,18, 0.00,60.00,Friday
6,24.8
7,25.25117229420916
2,6, 1, 6, 0,19, 0.00,60.00,Friday
6,24.858333333333336
7,25.17079335422757
2,6, 1, 6, 0,20, 0.00,60.00,Friday
6,24.958333333333333
7,25.094061006644876
2,6, 1, 6, 0,21, 0.00,60.00,Friday
6,25.0
7,25.04732501287485
2,6, 1, 6, 0,22, 0.00,60.00,Friday
6,24.941666666666668
7,25.031049506526313
2,6, 1, 6, 0,23, 0.00,60.00,Friday
6,24.900000000000003
7,25.019264579735475
2,6, 1, 6, 0,24, 0.00,60.00,Friday
6,24.666666666666669
7,24.787798547871046
2,7, 1, 7, 0, 1, 0.00,60.00,Saturday
6,24.208333333333333
7,24.317394075449916
2,7, 1, 7, 0, 2, 0.00,60.00,Saturday
6,23.766666666666667
7,23.868896379765788
2,7, 1, 7, 0, 3, 0.00,60.00,Saturday
6,23.71666666666667
7,23.84956901662666
2,7, 1, 7, 0, 4, 0.00,60.00,Saturday
6,23.974999999999999
7,24.08352479727081
2,7, 1, 7, 0, 5, 0.00,60.00,Saturday
6,24.216664632161458
7,24.248631596508234
2,7, 1, 7, 0, 6, 0.00,60.00,Saturday
6,24.24165801202623
7,24.24165801202623
2,7, 1, 7, 0, 7, 0.00,60.00,Saturday
6,24.07002454380111
7,24.07002454380111
2,7, 1, 7, 0, 8, 0.00,60.00,Saturday
6,23.990577579018525
7,23.990577579018525
2,7, 1, 7, 0, 9, 0.00,60.00,Saturday
6,23.99999920626043
7,23.99999920626043
2,7, 1, 7, 0,10, 0.00,60.00,Saturday
6,24.174990449176979
7,24.174990449176979
2,7, 1, 7, 0,11, 0.00,60.00,Saturday
6,24.53332546611718
7,24.53332546611718
2,7, 1, 7, 0,12, 0.00,60.00,Saturday
6,24.758333333333338
7,24.87131156202399
2,7, 1, 7, 0,13, 0.00,60.00,Saturday
6,24.8
7,25.049993799557887
2,7, 1, 7, 0,14, 0.00,60.00,Saturday
6,24.741666666666665
7,25.106960026163767
2,7, 1, 7, 0,15, 0.00,60.00,Saturday
6,24.583333333333333
7,24.988101683707126
2,7, 1, 7, 0,16, 0.00,60.00,Saturday
6,24.325000000000004
7,24.627200930524013
2,7, 1, 7, 0,17, 0.00,60.00,Saturday
6,24.083333333333333
7,24.240297409921554
2,7, 1, 7, 0,18, 0.00,60.00,Saturday
6,23.941666666666668
7,24.057373763895258
2,7, 1, 7, 0,19, 0.00,60.00,Saturday
6,23.900000000000003
7,24.011754574137965
2,7, 1, 7, 0,20, 0.00,60.00,Saturday
6,23.900000000000003
7,24.00065934003625
2,7, 1, 7, 0,21, 0.00,60.00,Saturday
6,23.84166666666667
7,23.943026673475257
2,7, 1, 7, 0,22, 0.00,60.00,Saturday
6,23.8
7,23.901868368947217
2,7, 1, 7, 0,23, 0.00,60.00,Saturday
6,23.74166666666667
7,23.844243228064057
2,7, 1, 7, 0,24, 0.00,60.00,Saturday
6,23.7
7,23.803001577195294
2,8, 1, 8, 0, 1, 0.00,60.00,Sunday
6,23.7
7,23.80294534690994
2,8, 1, 8, 0, 2, 0.00,60.00,Sunday
6,23.7
7,23.802867271171676
2,8, 1, 8, 0, 3, 0.00,60.00,Sunday
6,23.7
7,23.818068675474394
2,8, 1, 8, 0, 4, 0.00,60.00,Sunday
6,23.7
7,23.78541795000145
2,8, 1, 8, 0, 5, 0.00,60.00,Sunday
6,23.7
7,23.76796612452844
2,8, 1, 8, 0, 6, 0.00,60.00,Sunday
6,23.758331298828126
7,23.79077742266631
2,8, 1, 8, 0, 7, 0.00,60.00,Sunday
6,23.916656232544196
7,23.916656232544196
2,8, 1, 8, 0, 8, 0.00,60.00,Sunday
6,24.34999145558272
7,24.34999145558272
2,8, 1, 8, 0, 9, 0.00,60.00,Sunday
6,24.833333333333333
7,24.969122344276273
2,8, 1, 8, 0,10, 0.00,60.00,Sunday
6,25.175
7,25.584680935573034
2,8, 1, 8, 0,11, 0.00,60.00,Sunday
6,25.416666666666669
7,26.136577119972686
2,8, 1, 8, 0,12, 0.00,60.00,Sunday
6,25.441666666666668
7,26.380387958169128
2,8, 1, 8, 0,13, 0.00,60.00,Sunday
6,25.28333333333333
7,26.325708507472088
2,8, 1, 8, 0,14, 0.00,60.00,Sunday
6,25.025000000000003
7,26.163414225034559
2,8, 1, 8, 0,15, 0.00,60.00,Sunday
6,24.725000000000006
7,25.850479983277244
2,8, 1, 8, 0,16, 0.00,60.00,Sunday
6,24.541666666666669
7,25.565695820742819
2,8, 1, 8, 0,17, 0.00,60.00,Sunday
6,24.558333333333335
7,25.435877424535055
2,8, 1, 8, 0,18, 0.00,60.00,Sunday
6,24.89166666666667
7,25.56410611831967
2,8, 1, 8, 0,19, 0.00,60.00,Sunday
6,25.275000000000003
7,25.75067089181297
2,8, 1, 8, 0,20, 0.00,60.00,Sunday
6,25.63333333333333
7,25.944523362781067
2,8, 1, 8, 0,21, 0.00,60.00,Sunday
6,25.566666666666668
7,25.756962536517837
2,8, 1, 8, 0,22, 0.00,60.00,Sunday
6,25.166666666666669
7,25.339552977205604
2,8, 1, 8, 0,23, 0.00,60.00,Sunday
6,24.76666666666667
7,24.899215537337044
2,8, 1, 8, 0,24, 0.00,60.00,Sunday
6,24.599999999999999
7,24.69303773170111
2,9, 1, 9, 0, 1, 0.00,60.00,Monday
6,24.541666666666669
7,24.675778936882769
2,9, 1, 9, 0, 2, 0.00,60.00,Monday
6,24.5
7,24.663221359253176
2,9, 1, 9, 0, 3, 0.00,60.00,Monday
6,24.5
7,24.720707135542566
2,9, 1, 9, 0, 4, 0.00,60.00,Monday
6,24.558333333333335
7,24.819452385090277
2,9, 1, 9, 0, 5, 0.00,60.00,Monday
6,24.599999999999999
7,24.84241130252488
2,9, 1, 9, 0, 6, 0.00,60.00,Monday
6,24.483333333333336
7,24.675237169693145
2,9, 1, 9, 0, 7, 0.00,60.00,Monday
6,24.400000000000003
7,24.557115460819899
2,9, 1, 9, 0, 8, 0.00,60.00,Monday
6,24.400000000000003
7,24.4919316800793
2,9, 1, 9, 0, 9, 0.00,60.00,Monday
6,24.575
7,24.6668199327777
2,9, 1, 9, 0,10, 0.00,60.00,Monday
6,24.933333333333335
7,25.114589914226217
2,9, 1, 9, 0,11, 0.00,60.00,Monday
6,25.275000000000003
7,25.602964243486967
2,9, 1, 9, 0,12, 0.00,60.00,Monday
6,25.458333333333333
7,25.98797045791262
2,9, 1, 9, 0,13, 0.00,60.00,Monday
6,25.5
7,26.228544911530034
2,9, 1, 9, 0,14, 0.00,60.00,Monday
6,25.441666666666668
7,26.31906568925679
2,9, 1, 9, 0,15, 0.00,60.00,Monday
6,25.400000000000003
7,26.327587791391129
2,9, 1, 9, 0,16, 0.00,60.00,Monday
6,25.458333333333333
7,26.338247676217909
2,9, 1, 9, 0,17, 0.00,60.00,Monday
6,25.558333333333338
7,26.325560920088333
2,9, 1, 9, 0,18, 0.00,60.00,Monday
6,25.775000000000003
7,26.333206343344018
2,9, 1, 9, 0,19, 0.00,60.00,Monday
6,25.84166666666667
7,26.278335971256707
2,9, 1, 9, 0,20, 0.00,60.00,Monday
6,25.858333333333336
7,26.180588394925377
2,9, 1, 9, 0,21, 0.00,60.00,Monday
6,25.608333333333336
7,25.930142708219468
2,9, 1, 9, 0,22, 0.00,60.00,Monday
6,25.05
7,25.484763390700299
2,9, 1, 9, 0,23, 0.00,60.00,Monday
6,24.508333333333338
7,25.059184761766394
2,9, 1, 9, 0,24, 0.00,60.00,Monday
6,24.241666666666665
7,24.724399192753308
2,10, 1,10, 0, 1, 0.00,60.00,Tuesday
6,24.200000000000004
7,24.54160109683068
2,10, 1,10, 0, 2, 0.00,60.00,Tuesday
6,24.141666666666667
7,24.383716871215385
2,10, 1,10, 0, 3, 0.00,60.00,Tuesday
6,23.925000000000009
7,24.20583886643303
2,10, 1,10, 0, 4, 0.00,60.00,Tuesday
6,23.625
7,23.989766332356714
2,10, 1,10, 0, 5, 0.00,60.00,Tuesday
6,23.325
7,23.786813574066544
2,10, 1,10, 0, 6, 0.00,60.00,Tuesday
6,23.258333333333338
7,23.847087313458787
2,10, 1,10, 0, 7, 0.00,60.00,Tuesday
6,23.474999999999999
7,24.173943595614149
2,10, 1,10, 0, 8, 0.00,60.00,Tuesday
6,23.833333333333333
7,24.5706311200121
2,10, 1,10, 0, 9, 0.00,60.00,Tuesday
6,24.175
7,25.01074065704495
2,10, 1,10, 0,10, 0.00,60.00,Tuesday
6,24.474999999999999
7,25.390906819696828
2,10, 1,10, 0,11, 0.00,60.00,Tuesday
6,24.599999999999999
7,25.63470673677448
2,10, 1,10, 0,12, 0.00,60.00,Tuesday
6,24.425
7,25.655186682759277
2,10, 1,10, 0,13, 0.00,60.00,Tuesday
6,24.066666666666668
7,25.530014590074754
2,10, 1,10, 0,14, 0.00,60.00,Tuesday
6,23.60833333333333
7,25.280404191599734
2,10, 1,10, 0,15, 0.00,60.00,Tuesday
6,23.166666666666669
7,24.889025446065195
2,10, 1,10, 0,16, 0.00,60.00,Tuesday
6,22.941666666666668
7,24.591630031941617
2,10, 1,10, 0,17, 0.00,60.00,Tuesday
6,22.900000000000003
7,24.431006452801595
2,10, 1,10, 0,18, 0.00,60.00,Tuesday
6,23.191666666666664
7,24.507818943762229
2,10, 1,10, 0,19, 0.00,60.00,Tuesday
6,23.691666666666664
7,24.705448318142005
2,10, 1,10, 0,20, 0.00,60.00,Tuesday
6,24.191666666666664
7,24.943925599079848
2,10, 1,10, 0,21, 0.00,60.00,Tuesday
6,24.458333333333333
7,25.047951744470696
2,10, 1,10, 0,22, 0.00,60.00,Tuesday
6,24.5
7,24.97254992484488
2,10, 1,10, 0,23, 0.00,60.00,Tuesday
6,24.558333333333335
7,24.906785544595555
2,10, 1,10, 0,24, 0.00,60.00,Tuesday
6,24.541666666666669
7,24.894576321571308
2,11, 1,11, 0, 1, 0.00,60.00,Wednesday
6,24.5
7,24.894478456078969
2,11, 1,11, 0, 2, 0.00,60.00,Wednesday
6,24.441666666666668
7,24.8175498198032
2,11, 1,11, 0, 3, 0.00,60.00,Wednesday
6,24.166666666666669
7,24.51523186858202
2,11, 1,11, 0, 4, 0.00,60.00,Wednesday
6,23.708333333333333
7,23.992862880639025
2,11, 1,11, 0, 5, 0.00,60.00,Wednesday
6,23.26666666666667
7,23.491701784518516
2,11, 1,11, 0, 6, 0.00,60.00,Wednesday
6,23.39166666666667
7,23.66302470548814
2,11, 1,11, 0, 7, 0.00,60.00,Wednesday
6,24.008333333333338
7,24.405332799748526
2,11, 1,11, 0, 8, 0.00,60.00,Wednesday
6,24.708333333333333
7,25.2992049195624
2,11, 1,11, 0, 9, 0.00,60.00,Wednesday
6,25.233333333333336
7,25.938142964055534
2,11, 1,11, 0,10, 0.00,60.00,Wednesday
6,25.63333333333333
7,26.416511974039094
2,11, 1,11, 0,11, 0.00,60.00,Wednesday
6,25.916666666666669
7,26.797710279223627
2,11, 1,11, 0,12, 0.00,60.00,Wednesday
6,26.116666666666665
7,26.916031975329604
2,11, 1,11, 0,13, 0.00,60.00,Wednesday
6,26.2
7,26.923940818671395
2,11, 1,11, 0,14, 0.00,60.00,Wednesday
6,26.2
7,26.847277621834068
2,11, 1,11, 0,15, 0.00,60.00,Wednesday
6,26.141666666666667
7,26.705959076105086
2,11, 1,11, 0,16, 0.00,60.00,Wednesday
6,26.041666666666669
7,26.58962340937212
2,11, 1,11, 0,17, 0.00,60.00,Wednesday
6,25.88333333333334
7,26.404502286397336
2,11, 1,11, 0,18, 0.00,60.00,Wednesday
6,25.683333333333335
7,26.099981664331069
2,11, 1,11, 0,19, 0.00,60.00,Wednesday
6,25.366666666666665
7,25.738761173875884
2,11, 1,11, 0,20, 0.00,60.00,Wednesday
6,25.025000000000003
7,25.33437983161703
2,11, 1,11, 0,21, 0.00,60.00,Wednesday
6,24.725000000000006
7,24.983953099990115
2,11, 1,11, 0,22, 0.00,60.00,Wednesday
6,24.425
7,24.630535224966395
2,11, 1,11, 0,23, 0.00,60.00,Wednesday
6,24.125
7,24.29355343021098
2,11, 1,11, 0,24, 0.00,60.00,Wednesday
6,23.941666666666668
7,24.153178406278625
2,12, 1,12, 0, 1, 0.00,60.00,Thursday
6,23.900000000000003
7,24.140822406314926
2,12, 1,12, 0, 2, 0.00,60.00,Thursday
6,23.84166666666667
7,24.123058305518357
2,12, 1,12, 0, 3, 0.00,60.00,Thursday
6,23.74166666666667
7,24.110201728596868
2,12, 1,12, 0, 4, 0.00,60.00,Thursday
6,23.7
7,24.110201728596868
2,12, 1,12, 0, 5, 0.00,60.00,Thursday
6,23.641666666666667
7,24.034641571421287
2,12, 1,12, 0, 6, 0.00,60.00,Thursday
6,23.658333333333336
7,24.21871164163755
2,12, 1,12, 0, 7, 0.00,60.00,Thursday
6,23.816666666666668
7,24.617421421660838
2,12, 1,12, 0, 8, 0.00,60.00,Thursday
6,24.016666666666667
7,24.99430156422862
2,12, 1,12, 0, 9, 0.00,60.00,Thursday
6,24.158333333333336
7,25.27348966878182
2,12, 1,12, 0,10, 0.00,60.00,Thursday
6,24.200000000000004
7,25.353366811009889
2,12, 1,12, 0,11, 0.00,60.00,Thursday
6,24.141666666666667
7,25.361059959100275
2,12, 1,12, 0,12, 0.00,60.00,Thursday
6,23.86666666666667
7,25.206391046166176
2,12, 1,12, 0,13, 0.00,60.00,Thursday
6,23.46666666666667
7,24.951271432536588
2,12, 1,12, 0,14, 0.00,60.00,Thursday
6,23.125
7,24.75990879986205
2,12, 1,12, 0,15, 0.00,60.00,Thursday
6,23.0
7,24.627579794940347
2,12, 1,12, 0,16, 0.00,60.00,Thursday
6,23.0
7,24.554610279581128
2,12, 1,12, 0,17, 0.00,60.00,Thursday
6,23.0
7,24.39461134395862
2,12, 1,12, 0,18, 0.00,60.00,Thursday
6,22.941666666666668
7,24.146741451395369
2,12, 1,12, 0,19, 0.00,60.00,Thursday
6,22.958333333333333
7,24.027824710866314
2,12, 1,12, 0,20, 0.00,60.00,Thursday
6,23.0
7,23.993515745942579
2,12, 1,12, 0,21, 0.00,60.00,Thursday
6,23.175
7,24.02781426610835
2,12, 1,12, 0,22, 0.00,60.00,Thursday
6,23.474999999999999
7,24.170558532713618
2,12, 1,12, 0,23, 0.00,60.00,Thursday
6,23.775000000000003
7,24.371563983358994
2,12, 1,12, 0,24, 0.00,60.00,Thursday
6,23.78333333333333
7,24.255224265483237
2,13, 1,13, 0, 1, 0.00,60.00,Friday
6,23.641666666666667
7,23.977242419122889
2,13, 1,13, 0, 2, 0.00,60.00,Friday
6,23.483333333333336
7,23.74683406401974
2,13, 1,13, 0, 3, 0.00,60.00,Friday
6,23.225000000000006
7,23.450791489326009
2,13, 1,13, 0, 4, 0.00,60.00,Friday
6,22.86666666666667
7,23.019609100132994
2,13, 1,13, 0, 5, 0.00,60.00,Friday
6,22.525000000000003
7,22.608741828593784
2,13, 1,13, 0, 6, 0.00,60.00,Friday
6,22.34166666666667
7,22.553028209201398
2,13, 1,13, 0, 7, 0.00,60.00,Friday
6,22.416666666666669
7,22.974773625228015
2,13, 1,13, 0, 8, 0.00,60.00,Friday
6,22.791666666666669
7,23.613155117387679
2,13, 1,13, 0, 9, 0.00,60.00,Friday
6,23.525000000000003
7,24.405423461601996
2,13, 1,13, 0,10, 0.00,60.00,Friday
6,24.366666666666665
7,25.24503026124709
2,13, 1,13, 0,11, 0.00,60.00,Friday
6,24.933333333333335
7,25.906804974663044
2,13, 1,13, 0,12, 0.00,60.00,Friday
6,24.808333333333338
7,25.94988752422003
2,13, 1,13, 0,13, 0.00,60.00,Friday
6,24.191666666666668
7,25.49503344876157
2,13, 1,13, 0,14, 0.00,60.00,Friday
6,23.491666666666665
7,25.038436668163798
2,13, 1,13, 0,15, 0.00,60.00,Friday
6,22.96666666666667
7,24.681251069534896
2,13, 1,13, 0,16, 0.00,60.00,Friday
6,22.741666666666665
7,24.535102476330349
2,13, 1,13, 0,17, 0.00,60.00,Friday
6,22.700000000000004
7,24.40132451812845
2,13, 1,13, 0,18, 0.00,60.00,Friday
6,22.875
7,24.2670271988882
2,13, 1,13, 0,19, 0.00,60.00,Friday
6,23.175
7,24.245624546677239
2,13, 1,13, 0,20, 0.00,60.00,Friday
6,23.474999999999999
7,24.25457100995547
2,13, 1,13, 0,21, 0.00,60.00,Friday
6,23.541666666666669
7,24.25201057759458
2,13, 1,13, 0,22, 0.00,60.00,Friday
6,23.5
7,24.285220025581869
2,13, 1,13, 0,23, 0.00,60.00,Friday
6,23.441666666666668
7,24.30646401212449
2,13, 1,13, 0,24, 0.00,60.00,Friday
6,23.400000000000003
7,24.251084553573834
2,14, 1,14, 0, 1, 0.00,60.00,Saturday
6,23.400000000000003
7,24.151378976684808
2,14, 1,14, 0, 2, 0.00,60.00,Saturday
6,23.400000000000003
7,24.043793955174576
2,14, 1,14, 0, 3, 0.00,60.00,Saturday
6,23.10833333333333
7,23.737863879327649
2,14, 1,14, 0, 4, 0.00,60.00,Saturday
6,22.60833333333333
7,23.234125705711447
2,14, 1,14, 0, 5, 0.00,60.00,Saturday
6,22.10833333333333
7,22.667111423139333
2,14, 1,14, 0, 6, 0.00,60.00,Saturday
6,22.308333333333338
7,22.914124748834806
2,14, 1,14, 0, 7, 0.00,60.00,Saturday
6,23.125
7,23.81439209784315
2,14, 1,14, 0, 8, 0.00,60.00,Saturday
6,23.96666666666667
7,24.76533777093422
2,14, 1,14, 0, 9, 0.00,60.00,Saturday
6,24.474999999999999
7,25.35110098174006
2,14, 1,14, 0,10, 0.00,60.00,Saturday
6,24.65833333333333
7,25.635763042860984
2,14, 1,14, 0,11, 0.00,60.00,Saturday
6,24.7
7,25.837136337757334
2,14, 1,14, 0,12, 0.00,60.00,Saturday
6,24.7
7,25.949595230700909
2,14, 1,14, 0,13, 0.00,60.00,Saturday
6,24.7
7,26.0463571722827
2,14, 1,14, 0,14, 0.00,60.00,Saturday
6,24.7
7,26.038829354255684
2,14, 1,14, 0,15, 0.00,60.00,Saturday
6,24.641666666666667
7,25.836413465181768
2,14, 1,14, 0,16, 0.00,60.00,Saturday
6,24.541666666666669
7,25.55851799030557
2,14, 1,14, 0,17, 0.00,60.00,Saturday
6,24.383333333333338
7,25.168484137042957
2,14, 1,14, 0,18, 0.00,60.00,Saturday
6,24.125
7,24.796092064427456
2,14, 1,14, 0,19, 0.00,60.00,Saturday
6,23.825
7,24.413337402938628
2,14, 1,14, 0,20, 0.00,60.00,Saturday
6,23.525000000000003
7,24.04601179972799
2,14, 1,14, 0,21, 0.00,60.00,Saturday
6,23.400000000000003
7,23.85746205555917
2,14, 1,14, 0,22, 0.00,60.00,Saturday
6,23.400000000000003
7,23.779855390737724
2,14, 1,14, 0,23, 0.00,60.00,Saturday
6,23.400000000000003
7,23.772119727886076
2,14, 1,14, 0,24, 0.00,60.00,Saturday
6,23.400000000000003
7,23.76671516889715
2,15, 1,15, 0, 1, 0.00,60.00,Sunday
6,23.400000000000003
7,23.75292286752798
2,15, 1,15, 0, 2, 0.00,60.00,Sunday
6,23.400000000000003
7,23.80967673480851
2,15, 1,15, 0, 3, 0.00,60.00,Sunday
6,23.28333333333333
7,23.69833564370458
2,15, 1,15, 0, 4, 0.00,60.00,Sunday
6,23.141666666666667
7,23.452691208796666
2,15, 1,15, 0, 5, 0.00,60.00,Sunday
6,22.983333333333336
7,23.197403706142884
2,15, 1,15, 0, 6, 0.00,60.00,Sunday
6,23.075
7,23.420727515989083
2,15, 1,15, 0, 7, 0.00,60.00,Sunday
6,23.433333333333335
7,24.02677811996691
2,15, 1,15, 0, 8, 0.00,60.00,Sunday
6,23.775000000000003
7,24.523502316560266
2,15, 1,15, 0, 9, 0.00,60.00,Sunday
6,23.958333333333333
7,24.79883963339704
2,15, 1,15, 0,10, 0.00,60.00,Sunday
6,24.058333333333335
7,24.878147131274976
2,15, 1,15, 0,11, 0.00,60.00,Sunday
6,24.099999999999999
7,24.84969062499344
2,15, 1,15, 0,12, 0.00,60.00,Sunday
6,24.099999999999999
7,24.829107197661313
2,15, 1,15, 0,13, 0.00,60.00,Sunday
6,24.099999999999999
7,24.829107197661313
2,15, 1,15, 0,14, 0.00,60.00,Sunday
6,24.041666666666669
7,24.828773811324728
2,15, 1,15, 0,15, 0.00,60.00,Sunday
6,24.0
7,24.828540633142756
2,15, 1,15, 0,16, 0.00,60.00,Sunday
6,23.941666666666668
7,24.74580699259045
2,15, 1,15, 0,17, 0.00,60.00,Sunday
6,23.84166666666667
7,24.657836303482417
2,15, 1,15, 0,18, 0.00,60.00,Sunday
6,23.74166666666667
7,24.496152857769066
2,15, 1,15, 0,19, 0.00,60.00,Sunday
6,23.641666666666667
7,24.276273554099065
2,15, 1,15, 0,20, 0.00,60.00,Sunday
6,23.541666666666669
7,24.06588407275268
2,15, 1,15, 0,21, 0.00,60.00,Sunday
6,23.5
7,23.99671835798046
2,15, 1,15, 0,22, 0.00,60.00,Sunday
6,23.558333333333338
7,24.01140502631495
2,15, 1,15, 0,23, 0.00,60.00,Sunday
6,23.599999999999999
7,24.031482184011847
2,15, 1,15, 0,24, 0.00,60.00,Sunday
6,23.541666666666669
7,23.988761832038724
2,16, 1,16, 0, 1, 0.00,60.00,Monday
6,23.5
7,23.948131637877315
2,16, 1,16, 0, 2, 0.00,60.00,Monday
6,23.441666666666668
7,23.891248884411089
2,16, 1,16, 0, 3, 0.00,60.00,Monday
6,23.225000000000006
7,23.623095564371768
2,16, 1,16, 0, 4, 0.00,60.00,Monday
6,22.983333333333336
7,23.32541365228299
2,16, 1,16, 0, 5, 0.00,60.00,Monday
6,22.725000000000006
7,23.072199632262245
2,16, 1,16, 0, 6, 0.00,60.00,Monday
6,22.89166666666667
7,23.292896825087266
2,16, 1,16, 0, 7, 0.00,60.00,Monday
6,23.39166666666667
7,24.005544063208594
2,16, 1,16, 0, 8, 0.00,60.00,Monday
6,23.833333333333333
7,24.713362066497355
2,16, 1,16, 0, 9, 0.00,60.00,Monday
6,23.941666666666668
7,25.08461581039404
2,16, 1,16, 0,10, 0.00,60.00,Monday
6,23.900000000000003
7,25.22754130770872
2,16, 1,16, 0,11, 0.00,60.00,Monday
6,24.075
7,25.485035987901019
2,16, 1,16, 0,12, 0.00,60.00,Monday
6,24.725000000000006
7,26.064303264391087
2,16, 1,16, 0,13, 0.00,60.00,Monday
6,25.39166666666667
7,26.55000527634171
2,16, 1,16, 0,14, 0.00,60.00,Monday
6,25.483333333333336
7,26.53392147113391
2,16, 1,16, 0,15, 0.00,60.00,Monday
6,24.40833333333333
7,25.780191223435279
2,16, 1,16, 0,16, 0.00,60.00,Monday
6,22.766666666666667
7,24.618361671384965
2,16, 1,16, 0,17, 0.00,60.00,Monday
6,21.458333333333333
7,23.617532878912657
2,16, 1,16, 0,18, 0.00,60.00,Monday
6,21.350000000000006
7,23.245824078982556
2,16, 1,16, 0,19, 0.00,60.00,Monday
6,21.95
7,23.30566615607246
2,16, 1,16, 0,20, 0.00,60.00,Monday
6,22.55
7,23.436273104923854
2,16, 1,16, 0,21, 0.00,60.00,Monday
6,22.566666666666668
7,23.351963708169405
2,16, 1,16, 0,22, 0.00,60.00,Monday
6,22.166666666666669
7,23.128955916981455
2,16, 1,16, 0,23, 0.00,60.00,Monday
6,21.76666666666667
7,22.8952134125087
2,16, 1,16, 0,24, 0.00,60.00,Monday
6,21.599999999999999
7,22.715900711296685
2,17, 1,17, 0, 1, 0.00,60.00,Tuesday
6,21.65833333333333
7,22.621771745977424
2,17, 1,17, 0, 2, 0.00,60.00,Tuesday
6,21.700000000000004
7,22.495006472378888
2,17, 1,17, 0, 3, 0.00,60.00,Tuesday
6,21.525000000000003
7,22.253490071152105